 Entering Gaussian System, Link 0=g16
 Initial command:
 /Applications/g16/l1.exe "/Applications/g16/Scratch/Gau-6109.inp" -scrdir="/Applications/g16/Scratch/"
 Entering Link 1 = /Applications/g16/l1.exe PID=      6111.
  
 Copyright (c) 1988-2017, Gaussian, Inc.  All Rights Reserved.
  
 This is part of the Gaussian(R) 16 program.  It is based on
 the Gaussian(R) 09 system (copyright 2009, Gaussian, Inc.),
 the Gaussian(R) 03 system (copyright 2003, Gaussian, Inc.),
 the Gaussian(R) 98 system (copyright 1998, Gaussian, Inc.),
 the Gaussian(R) 94 system (copyright 1995, Gaussian, Inc.),
 the Gaussian 92(TM) system (copyright 1992, Gaussian, Inc.),
 the Gaussian 90(TM) system (copyright 1990, Gaussian, Inc.),
 the Gaussian 88(TM) system (copyright 1988, Gaussian, Inc.),
 the Gaussian 86(TM) system (copyright 1986, Carnegie Mellon
 University), and the Gaussian 82(TM) system (copyright 1983,
 Carnegie Mellon University). Gaussian is a federally registered
 trademark of Gaussian, Inc.
  
 This software contains proprietary and confidential information,
 including trade secrets, belonging to Gaussian, Inc.
  
 This software is provided under written license and may be
 used, copied, transmitted, or stored only in accord with that
 written license.
  
 The following legend is applicable only to US Government
 contracts under FAR:
  
                    RESTRICTED RIGHTS LEGEND
  
 Use, reproduction and disclosure by the US Government is
 subject to restrictions as set forth in subparagraphs (a)
 and (c) of the Commercial Computer Software - Restricted
 Rights clause in FAR 52.227-19.
  
 Gaussian, Inc.
 340 Quinnipiac St., Bldg. 40, Wallingford CT 06492
  
  
 ---------------------------------------------------------------
 Warning -- This program may not be used in any manner that
 competes with the business of Gaussian, Inc. or will provide
 assistance to any competitor of Gaussian, Inc.  The licensee
 of this program is prohibited from giving any competitor of
 Gaussian, Inc. access to this program.  By using this program,
 the user acknowledges that Gaussian, Inc. is engaged in the
 business of creating and licensing software in the field of
 computational chemistry and represents and warrants to the
 licensee that it is not a competitor of Gaussian, Inc. and that
 it will not use this program in any manner prohibited above.
 ---------------------------------------------------------------
  

 Cite this work as:
 Gaussian 16, Revision B.01,
 M. J. Frisch, G. W. Trucks, H. B. Schlegel, G. E. Scuseria, 
 M. A. Robb, J. R. Cheeseman, G. Scalmani, V. Barone, 
 G. A. Petersson, H. Nakatsuji, X. Li, M. Caricato, A. V. Marenich, 
 J. Bloino, B. G. Janesko, R. Gomperts, B. Mennucci, H. P. Hratchian, 
 J. V. Ortiz, A. F. Izmaylov, J. L. Sonnenberg, D. Williams-Young, 
 F. Ding, F. Lipparini, F. Egidi, J. Goings, B. Peng, A. Petrone, 
 T. Henderson, D. Ranasinghe, V. G. Zakrzewski, J. Gao, N. Rega, 
 G. Zheng, W. Liang, M. Hada, M. Ehara, K. Toyota, R. Fukuda, 
 J. Hasegawa, M. Ishida, T. Nakajima, Y. Honda, O. Kitao, H. Nakai, 
 T. Vreven, K. Throssell, J. A. Montgomery, Jr., J. E. Peralta, 
 F. Ogliaro, M. J. Bearpark, J. J. Heyd, E. N. Brothers, K. N. Kudin, 
 V. N. Staroverov, T. A. Keith, R. Kobayashi, J. Normand, 
 K. Raghavachari, A. P. Rendell, J. C. Burant, S. S. Iyengar, 
 J. Tomasi, M. Cossi, J. M. Millam, M. Klene, C. Adamo, R. Cammi, 
 J. W. Ochterski, R. L. Martin, K. Morokuma, O. Farkas, 
 J. B. Foresman, and D. J. Fox, Gaussian, Inc., Wallingford CT, 2016.
 
 ******************************************
 Gaussian 16:  EM64M-G16RevB.01 20-Dec-2017
                24-Apr-2021 
 ******************************************
 %nprocshared=8
 Will use up to    8 processors via shared memory.
 %mem=10GB
 ---------------------------------------------
 #p nmr=giao rb3lyp/6-31g(d) geom=connectivity
 ---------------------------------------------
 1/38=1,57=2,172=1/1;
 2/12=2,17=6,18=5,40=1/2;
 3/5=1,6=6,7=1,11=2,25=1,30=1,74=-5,116=1/1,2,3,8;
 4//1;
 5/5=2,38=5/2;
 8/6=1,10=90,11=11/1;
 10/13=100,45=16/2;
 6/7=2,8=2,9=2,10=2,28=1/1;
 99/9=1/99;
 Leave Link    1 at Sat Apr 24 15:17:31 2021, MaxMem=  1342177280 cpu:               1.7 elap:               0.3
 (Enter /Applications/g16/l101.exe)
 ----------------------------------------------------------
 /Users/tetsu/Desktop/benzene_ICSS_XY_0//Created_by_ICSSgen
 ----------------------------------------------------------
 Symbolic Z-matrix:
 Charge =  0 Multiplicity = 1
 C                    -1.33924  -0.39585   0.00001 
 C                    -0.32669  -1.35773   0.00007 
 C                     1.01242  -0.96188  -0.00006 
 C                     1.3392    0.39597   0.00001 
 C                     0.3268    1.3577    0.00006 
 C                    -1.0125    0.9618   -0.00006 
 H                    -2.38133  -0.70401  -0.00007 
 H                    -0.58109  -2.41425   0.00008 
 H                     1.80038  -1.71023  -0.00015 
 H                     2.38137   0.70386   0.00001 
 H                     0.58095   2.41427   0.00002 
 H                    -1.80028   1.71035  -0.00006 
 Bq                   -3.       -3.        0. 
 Bq                   -3.       -2.8       0. 
 Bq                   -3.       -2.6       0. 
 Bq                   -3.       -2.4       0. 
 Bq                   -3.       -2.2       0. 
 Bq                   -3.       -2.        0. 
 Bq                   -3.       -1.8       0. 
 Bq                   -3.       -1.6       0. 
 Bq                   -3.       -1.4       0. 
 Bq                   -3.       -1.2       0. 
 Bq                   -3.       -1.        0. 
 Bq                   -3.       -0.8       0. 
 Bq                   -3.       -0.6       0. 
 Bq                   -3.       -0.4       0. 
 Bq                   -3.       -0.2       0. 
 Bq                   -3.        0.        0. 
 Bq                   -3.        0.2       0. 
 Bq                   -3.        0.4       0. 
 Bq                   -3.        0.6       0. 
 Bq                   -3.        0.8       0. 
 Bq                   -3.        1.        0. 
 Bq                   -3.        1.2       0. 
 Bq                   -3.        1.4       0. 
 Bq                   -3.        1.6       0. 
 Bq                   -3.        1.8       0. 
 Bq                   -3.        2.        0. 
 Bq                   -3.        2.2       0. 
 Bq                   -3.        2.4       0. 
 Bq                   -3.        2.6       0. 
 Bq                   -3.        2.8       0. 
 Bq                   -3.        3.        0. 
 Bq                   -2.8      -3.        0. 
 Bq                   -2.8      -2.8       0. 
 Bq                   -2.8      -2.6       0. 
 Bq                   -2.8      -2.4       0. 
 Bq                   -2.8      -2.2       0. 
 Bq                   -2.8      -2.        0. 
 Bq                   -2.8      -1.8       0. 
 Bq                   -2.8      -1.6       0. 
 Bq                   -2.8      -1.4       0. 
 Bq                   -2.8      -1.2       0. 
 Bq                   -2.8      -1.        0. 
 Bq                   -2.8      -0.8       0. 
 Bq                   -2.8      -0.6       0. 
 Bq                   -2.8      -0.4       0. 
 Bq                   -2.8      -0.2       0. 
 Bq                   -2.8       0.        0. 
 Bq                   -2.8       0.2       0. 
 Bq                   -2.8       0.4       0. 
 Bq                   -2.8       0.6       0. 
 Bq                   -2.8       0.8       0. 
 Bq                   -2.8       1.        0. 
 Bq                   -2.8       1.2       0. 
 Bq                   -2.8       1.4       0. 
 Bq                   -2.8       1.6       0. 
 Bq                   -2.8       1.8       0. 
 Bq                   -2.8       2.        0. 
 Bq                   -2.8       2.2       0. 
 Bq                   -2.8       2.4       0. 
 Bq                   -2.8       2.6       0. 
 Bq                   -2.8       2.8       0. 
 Bq                   -2.8       3.        0. 
 Bq                   -2.6      -3.        0. 
 Bq                   -2.6      -2.8       0. 
 Bq                   -2.6      -2.6       0. 
 Bq                   -2.6      -2.4       0. 
 Bq                   -2.6      -2.2       0. 
 Bq                   -2.6      -2.        0. 
 Bq                   -2.6      -1.8       0. 
 Bq                   -2.6      -1.6       0. 
 Bq                   -2.6      -1.4       0. 
 Bq                   -2.6      -1.2       0. 
 Bq                   -2.6      -1.        0. 
 Bq                   -2.6      -0.8       0. 
 Bq                   -2.6      -0.6       0. 
 Bq                   -2.6      -0.4       0. 
 Bq                   -2.6      -0.2       0. 
 Bq                   -2.6       0.        0. 
 Bq                   -2.6       0.2       0. 
 Bq                   -2.6       0.4       0. 
 Bq                   -2.6       0.6       0. 
 Bq                   -2.6       0.8       0. 
 Bq                   -2.6       1.        0. 
 Bq                   -2.6       1.2       0. 
 Bq                   -2.6       1.4       0. 
 Bq                   -2.6       1.6       0. 
 Bq                   -2.6       1.8       0. 
 Bq                   -2.6       2.        0. 
 Bq                   -2.6       2.2       0. 
 Bq                   -2.6       2.4       0. 
 Bq                   -2.6       2.6       0. 
 Bq                   -2.6       2.8       0. 
 Bq                   -2.6       3.        0. 
 Bq                   -2.4      -3.        0. 
 Bq                   -2.4      -2.8       0. 
 Bq                   -2.4      -2.6       0. 
 Bq                   -2.4      -2.4       0. 
 Bq                   -2.4      -2.2       0. 
 Bq                   -2.4      -2.        0. 
 Bq                   -2.4      -1.8       0. 
 Bq                   -2.4      -1.6       0. 
 Bq                   -2.4      -1.4       0. 
 Bq                   -2.4      -1.2       0. 
 Bq                   -2.4      -1.        0. 
 Bq                   -2.4      -0.8       0. 
 Bq                   -2.4      -0.6       0. 
 Bq                   -2.4      -0.4       0. 
 Bq                   -2.4      -0.2       0. 
 Bq                   -2.4       0.        0. 
 Bq                   -2.4       0.2       0. 
 Bq                   -2.4       0.4       0. 
 Bq                   -2.4       0.6       0. 
 Bq                   -2.4       0.8       0. 
 Bq                   -2.4       1.        0. 
 Bq                   -2.4       1.2       0. 
 Bq                   -2.4       1.4       0. 
 Bq                   -2.4       1.6       0. 
 Bq                   -2.4       1.8       0. 
 Bq                   -2.4       2.        0. 
 Bq                   -2.4       2.2       0. 
 Bq                   -2.4       2.4       0. 
 Bq                   -2.4       2.6       0. 
 Bq                   -2.4       2.8       0. 
 Bq                   -2.4       3.        0. 
 Bq                   -2.2      -3.        0. 
 Bq                   -2.2      -2.8       0. 
 Bq                   -2.2      -2.6       0. 
 Bq                   -2.2      -2.4       0. 
 Bq                   -2.2      -2.2       0. 
 Bq                   -2.2      -2.        0. 
 Bq                   -2.2      -1.8       0. 
 Bq                   -2.2      -1.6       0. 
 Bq                   -2.2      -1.4       0. 
 Bq                   -2.2      -1.2       0. 
 Bq                   -2.2      -1.        0. 
 Bq                   -2.2      -0.8       0. 
 Bq                   -2.2      -0.6       0. 
 Bq                   -2.2      -0.4       0. 
 Bq                   -2.2      -0.2       0. 
 Bq                   -2.2       0.        0. 
 Bq                   -2.2       0.2       0. 
 Bq                   -2.2       0.4       0. 
 Bq                   -2.2       0.6       0. 
 Bq                   -2.2       0.8       0. 
 Bq                   -2.2       1.        0. 
 Bq                   -2.2       1.2       0. 
 Bq                   -2.2       1.4       0. 
 Bq                   -2.2       1.6       0. 
 Bq                   -2.2       1.8       0. 
 Bq                   -2.2       2.        0. 
 Bq                   -2.2       2.2       0. 
 Bq                   -2.2       2.4       0. 
 Bq                   -2.2       2.6       0. 
 Bq                   -2.2       2.8       0. 
 Bq                   -2.2       3.        0. 
 Bq                   -2.       -3.        0. 
 Bq                   -2.       -2.8       0. 
 Bq                   -2.       -2.6       0. 
 Bq                   -2.       -2.4       0. 
 Bq                   -2.       -2.2       0. 
 Bq                   -2.       -2.        0. 
 Bq                   -2.       -1.8       0. 
 Bq                   -2.       -1.6       0. 
 Bq                   -2.       -1.4       0. 
 Bq                   -2.       -1.2       0. 
 Bq                   -2.       -1.        0. 
 Bq                   -2.       -0.8       0. 
 Bq                   -2.       -0.6       0. 
 Bq                   -2.       -0.4       0. 
 Bq                   -2.       -0.2       0. 
 Bq                   -2.        0.        0. 
 Bq                   -2.        0.2       0. 
 Bq                   -2.        0.4       0. 
 Bq                   -2.        0.6       0. 
 Bq                   -2.        0.8       0. 
 Bq                   -2.        1.        0. 
 Bq                   -2.        1.2       0. 
 Bq                   -2.        1.4       0. 
 Bq                   -2.        1.6       0. 
 Bq                   -2.        1.8       0. 
 Bq                   -2.        2.        0. 
 Bq                   -2.        2.2       0. 
 Bq                   -2.        2.4       0. 
 Bq                   -2.        2.6       0. 
 Bq                   -2.        2.8       0. 
 Bq                   -2.        3.        0. 
 Bq                   -1.8      -3.        0. 
 Bq                   -1.8      -2.8       0. 
 Bq                   -1.8      -2.6       0. 
 Bq                   -1.8      -2.4       0. 
 Bq                   -1.8      -2.2       0. 
 Bq                   -1.8      -2.        0. 
 Bq                   -1.8      -1.8       0. 
 Bq                   -1.8      -1.6       0. 
 Bq                   -1.8      -1.4       0. 
 Bq                   -1.8      -1.2       0. 
 Bq                   -1.8      -1.        0. 
 Bq                   -1.8      -0.8       0. 
 Bq                   -1.8      -0.6       0. 
 Bq                   -1.8      -0.4       0. 
 Bq                   -1.8      -0.2       0. 
 Bq                   -1.8       0.        0. 
 Bq                   -1.8       0.2       0. 
 Bq                   -1.8       0.4       0. 
 Bq                   -1.8       0.6       0. 
 Bq                   -1.8       0.8       0. 
 Bq                   -1.8       1.        0. 
 Bq                   -1.8       1.2       0. 
 Bq                   -1.8       1.4       0. 
 Bq                   -1.8       1.6       0. 
 Bq                   -1.8       1.8       0. 
 Bq                   -1.8       2.        0. 
 Bq                   -1.8       2.2       0. 
 Bq                   -1.8       2.4       0. 
 Bq                   -1.8       2.6       0. 
 Bq                   -1.8       2.8       0. 
 Bq                   -1.8       3.        0. 
 Bq                   -1.6      -3.        0. 
 Bq                   -1.6      -2.8       0. 
 Bq                   -1.6      -2.6       0. 
 Bq                   -1.6      -2.4       0. 
 Bq                   -1.6      -2.2       0. 
 Bq                   -1.6      -2.        0. 
 Bq                   -1.6      -1.8       0. 
 Bq                   -1.6      -1.6       0. 
 Bq                   -1.6      -1.4       0. 
 Bq                   -1.6      -1.2       0. 
 Bq                   -1.6      -1.        0. 
 Bq                   -1.6      -0.8       0. 
 Bq                   -1.6      -0.6       0. 
 Bq                   -1.6      -0.4       0. 
 Bq                   -1.6      -0.2       0. 
 Bq                   -1.6       0.        0. 
 Bq                   -1.6       0.2       0. 
 Bq                   -1.6       0.4       0. 
 Bq                   -1.6       0.6       0. 
 Bq                   -1.6       0.8       0. 
 Bq                   -1.6       1.        0. 
 Bq                   -1.6       1.2       0. 
 Bq                   -1.6       1.4       0. 
 Bq                   -1.6       1.6       0. 
 Bq                   -1.6       1.8       0. 
 Bq                   -1.6       2.        0. 
 Bq                   -1.6       2.2       0. 
 Bq                   -1.6       2.4       0. 
 Bq                   -1.6       2.6       0. 
 Bq                   -1.6       2.8       0. 
 Bq                   -1.6       3.        0. 
 Bq                   -1.4      -3.        0. 
 Bq                   -1.4      -2.8       0. 
 Bq                   -1.4      -2.6       0. 
 Bq                   -1.4      -2.4       0. 
 Bq                   -1.4      -2.2       0. 
 Bq                   -1.4      -2.        0. 
 Bq                   -1.4      -1.8       0. 
 Bq                   -1.4      -1.6       0. 
 Bq                   -1.4      -1.4       0. 
 Bq                   -1.4      -1.2       0. 
 Bq                   -1.4      -1.        0. 
 Bq                   -1.4      -0.8       0. 
 Bq                   -1.4      -0.6       0. 
 Bq                   -1.4      -0.4       0. 
 Bq                   -1.4      -0.2       0. 
 Bq                   -1.4       0.        0. 
 Bq                   -1.4       0.2       0. 
 Bq                   -1.4       0.4       0. 
 Bq                   -1.4       0.6       0. 
 Bq                   -1.4       0.8       0. 
 Bq                   -1.4       1.        0. 
 Bq                   -1.4       1.2       0. 
 Bq                   -1.4       1.4       0. 
 Bq                   -1.4       1.6       0. 
 Bq                   -1.4       1.8       0. 
 Bq                   -1.4       2.        0. 
 Bq                   -1.4       2.2       0. 
 Bq                   -1.4       2.4       0. 
 Bq                   -1.4       2.6       0. 
 Bq                   -1.4       2.8       0. 
 Bq                   -1.4       3.        0. 
 Bq                   -1.2      -3.        0. 
 Bq                   -1.2      -2.8       0. 
 Bq                   -1.2      -2.6       0. 
 Bq                   -1.2      -2.4       0. 
 Bq                   -1.2      -2.2       0. 
 Bq                   -1.2      -2.        0. 
 Bq                   -1.2      -1.8       0. 
 Bq                   -1.2      -1.6       0. 
 Bq                   -1.2      -1.4       0. 
 Bq                   -1.2      -1.2       0. 
 Bq                   -1.2      -1.        0. 
 Bq                   -1.2      -0.8       0. 
 Bq                   -1.2      -0.6       0. 
 Bq                   -1.2      -0.4       0. 
 Bq                   -1.2      -0.2       0. 
 Bq                   -1.2       0.        0. 
 Bq                   -1.2       0.2       0. 
 Bq                   -1.2       0.4       0. 
 Bq                   -1.2       0.6       0. 
 Bq                   -1.2       0.8       0. 
 Bq                   -1.2       1.        0. 
 Bq                   -1.2       1.2       0. 
 Bq                   -1.2       1.4       0. 
 Bq                   -1.2       1.6       0. 
 Bq                   -1.2       1.8       0. 
 Bq                   -1.2       2.        0. 
 Bq                   -1.2       2.2       0. 
 Bq                   -1.2       2.4       0. 
 Bq                   -1.2       2.6       0. 
 Bq                   -1.2       2.8       0. 
 Bq                   -1.2       3.        0. 
 Bq                   -1.       -3.        0. 
 Bq                   -1.       -2.8       0. 
 Bq                   -1.       -2.6       0. 
 Bq                   -1.       -2.4       0. 
 Bq                   -1.       -2.2       0. 
 Bq                   -1.       -2.        0. 
 Bq                   -1.       -1.8       0. 
 Bq                   -1.       -1.6       0. 
 Bq                   -1.       -1.4       0. 
 Bq                   -1.       -1.2       0. 
 Bq                   -1.       -1.        0. 
 Bq                   -1.       -0.8       0. 
 Bq                   -1.       -0.6       0. 
 Bq                   -1.       -0.4       0. 
 Bq                   -1.       -0.2       0. 
 Bq                   -1.        0.        0. 
 Bq                   -1.        0.2       0. 
 Bq                   -1.        0.4       0. 
 Bq                   -1.        0.6       0. 
 Bq                   -1.        0.8       0. 
 Bq                   -1.        1.        0. 
 Bq                   -1.        1.2       0. 
 Bq                   -1.        1.4       0. 
 Bq                   -1.        1.6       0. 
 Bq                   -1.        1.8       0. 
 Bq                   -1.        2.        0. 
 Bq                   -1.        2.2       0. 
 Bq                   -1.        2.4       0. 
 Bq                   -1.        2.6       0. 
 Bq                   -1.        2.8       0. 
 Bq                   -1.        3.        0. 
 Bq                   -0.8      -3.        0. 
 Bq                   -0.8      -2.8       0. 
 Bq                   -0.8      -2.6       0. 
 Bq                   -0.8      -2.4       0. 
 Bq                   -0.8      -2.2       0. 
 Bq                   -0.8      -2.        0. 
 Bq                   -0.8      -1.8       0. 
 Bq                   -0.8      -1.6       0. 
 Bq                   -0.8      -1.4       0. 
 Bq                   -0.8      -1.2       0. 
 Bq                   -0.8      -1.        0. 
 Bq                   -0.8      -0.8       0. 
 Bq                   -0.8      -0.6       0. 
 Bq                   -0.8      -0.4       0. 
 Bq                   -0.8      -0.2       0. 
 Bq                   -0.8       0.        0. 
 Bq                   -0.8       0.2       0. 
 Bq                   -0.8       0.4       0. 
 Bq                   -0.8       0.6       0. 
 Bq                   -0.8       0.8       0. 
 Bq                   -0.8       1.        0. 
 Bq                   -0.8       1.2       0. 
 Bq                   -0.8       1.4       0. 
 Bq                   -0.8       1.6       0. 
 Bq                   -0.8       1.8       0. 
 Bq                   -0.8       2.        0. 
 Bq                   -0.8       2.2       0. 
 Bq                   -0.8       2.4       0. 
 Bq                   -0.8       2.6       0. 
 Bq                   -0.8       2.8       0. 
 Bq                   -0.8       3.        0. 
 Bq                   -0.6      -3.        0. 
 Bq                   -0.6      -2.8       0. 
 Bq                   -0.6      -2.6       0. 
 Bq                   -0.6      -2.4       0. 
 Bq                   -0.6      -2.2       0. 
 Bq                   -0.6      -2.        0. 
 Bq                   -0.6      -1.8       0. 
 Bq                   -0.6      -1.6       0. 
 Bq                   -0.6      -1.4       0. 
 Bq                   -0.6      -1.2       0. 
 Bq                   -0.6      -1.        0. 
 Bq                   -0.6      -0.8       0. 
 Bq                   -0.6      -0.6       0. 
 Bq                   -0.6      -0.4       0. 
 Bq                   -0.6      -0.2       0. 
 Bq                   -0.6       0.        0. 
 Bq                   -0.6       0.2       0. 
 Bq                   -0.6       0.4       0. 
 Bq                   -0.6       0.6       0. 
 Bq                   -0.6       0.8       0. 
 Bq                   -0.6       1.        0. 
 Bq                   -0.6       1.2       0. 
 Bq                   -0.6       1.4       0. 
 Bq                   -0.6       1.6       0. 
 Bq                   -0.6       1.8       0. 
 Bq                   -0.6       2.        0. 
 Bq                   -0.6       2.2       0. 
 Bq                   -0.6       2.4       0. 
 Bq                   -0.6       2.6       0. 
 Bq                   -0.6       2.8       0. 
 Bq                   -0.6       3.        0. 
 Bq                   -0.4      -3.        0. 
 Bq                   -0.4      -2.8       0. 
 Bq                   -0.4      -2.6       0. 
 Bq                   -0.4      -2.4       0. 
 Bq                   -0.4      -2.2       0. 
 Bq                   -0.4      -2.        0. 
 Bq                   -0.4      -1.8       0. 
 Bq                   -0.4      -1.6       0. 
 Bq                   -0.4      -1.4       0. 
 Bq                   -0.4      -1.2       0. 
 Bq                   -0.4      -1.        0. 
 Bq                   -0.4      -0.8       0. 
 Bq                   -0.4      -0.6       0. 
 Bq                   -0.4      -0.4       0. 
 Bq                   -0.4      -0.2       0. 
 Bq                   -0.4       0.        0. 
 Bq                   -0.4       0.2       0. 
 Bq                   -0.4       0.4       0. 
 Bq                   -0.4       0.6       0. 
 Bq                   -0.4       0.8       0. 
 Bq                   -0.4       1.        0. 
 Bq                   -0.4       1.2       0. 
 Bq                   -0.4       1.4       0. 
 Bq                   -0.4       1.6       0. 
 Bq                   -0.4       1.8       0. 
 Bq                   -0.4       2.        0. 
 Bq                   -0.4       2.2       0. 
 Bq                   -0.4       2.4       0. 
 Bq                   -0.4       2.6       0. 
 Bq                   -0.4       2.8       0. 
 Bq                   -0.4       3.        0. 
 Bq                   -0.2      -3.        0. 
 Bq                   -0.2      -2.8       0. 
 Bq                   -0.2      -2.6       0. 
 Bq                   -0.2      -2.4       0. 
 Bq                   -0.2      -2.2       0. 
 Bq                   -0.2      -2.        0. 
 Bq                   -0.2      -1.8       0. 
 Bq                   -0.2      -1.6       0. 
 Bq                   -0.2      -1.4       0. 
 Bq                   -0.2      -1.2       0. 
 Bq                   -0.2      -1.        0. 
 Bq                   -0.2      -0.8       0. 
 Bq                   -0.2      -0.6       0. 
 Bq                   -0.2      -0.4       0. 
 Bq                   -0.2      -0.2       0. 
 Bq                   -0.2       0.        0. 
 Bq                   -0.2       0.2       0. 
 Bq                   -0.2       0.4       0. 
 Bq                   -0.2       0.6       0. 
 Bq                   -0.2       0.8       0. 
 Bq                   -0.2       1.        0. 
 Bq                   -0.2       1.2       0. 
 Bq                   -0.2       1.4       0. 
 Bq                   -0.2       1.6       0. 
 Bq                   -0.2       1.8       0. 
 Bq                   -0.2       2.        0. 
 Bq                   -0.2       2.2       0. 
 Bq                   -0.2       2.4       0. 
 Bq                   -0.2       2.6       0. 
 Bq                   -0.2       2.8       0. 
 Bq                   -0.2       3.        0. 
 Bq                    0.       -3.        0. 
 Bq                    0.       -2.8       0. 
 Bq                    0.       -2.6       0. 
 Bq                    0.       -2.4       0. 
 Bq                    0.       -2.2       0. 
 Bq                    0.       -2.        0. 
 Bq                    0.       -1.8       0. 
 Bq                    0.       -1.6       0. 
 Bq                    0.       -1.4       0. 
 Bq                    0.       -1.2       0. 
 Bq                    0.       -1.        0. 
 Bq                    0.       -0.8       0. 
 Bq                    0.       -0.6       0. 
 Bq                    0.       -0.4       0. 
 Bq                    0.       -0.2       0. 
 Bq                    0.        0.        0. 
 Bq                    0.        0.2       0. 
 Bq                    0.        0.4       0. 
 Bq                    0.        0.6       0. 
 Bq                    0.        0.8       0. 
 Bq                    0.        1.        0. 
 Bq                    0.        1.2       0. 
 Bq                    0.        1.4       0. 
 Bq                    0.        1.6       0. 
 Bq                    0.        1.8       0. 
 Bq                    0.        2.        0. 
 Bq                    0.        2.2       0. 
 Bq                    0.        2.4       0. 
 Bq                    0.        2.6       0. 
 Bq                    0.        2.8       0. 
 Bq                    0.        3.        0. 
 Bq                    0.2      -3.        0. 
 Bq                    0.2      -2.8       0. 
 Bq                    0.2      -2.6       0. 
 Bq                    0.2      -2.4       0. 
 Bq                    0.2      -2.2       0. 
 Bq                    0.2      -2.        0. 
 Bq                    0.2      -1.8       0. 
 Bq                    0.2      -1.6       0. 
 Bq                    0.2      -1.4       0. 
 Bq                    0.2      -1.2       0. 
 Bq                    0.2      -1.        0. 
 Bq                    0.2      -0.8       0. 
 Bq                    0.2      -0.6       0. 
 Bq                    0.2      -0.4       0. 
 Bq                    0.2      -0.2       0. 
 Bq                    0.2       0.        0. 
 Bq                    0.2       0.2       0. 
 Bq                    0.2       0.4       0. 
 Bq                    0.2       0.6       0. 
 Bq                    0.2       0.8       0. 
 Bq                    0.2       1.        0. 
 Bq                    0.2       1.2       0. 
 Bq                    0.2       1.4       0. 
 Bq                    0.2       1.6       0. 
 Bq                    0.2       1.8       0. 
 Bq                    0.2       2.        0. 
 Bq                    0.2       2.2       0. 
 Bq                    0.2       2.4       0. 
 Bq                    0.2       2.6       0. 
 Bq                    0.2       2.8       0. 
 Bq                    0.2       3.        0. 
 Bq                    0.4      -3.        0. 
 Bq                    0.4      -2.8       0. 
 Bq                    0.4      -2.6       0. 
 Bq                    0.4      -2.4       0. 
 Bq                    0.4      -2.2       0. 
 Bq                    0.4      -2.        0. 
 Bq                    0.4      -1.8       0. 
 Bq                    0.4      -1.6       0. 
 Bq                    0.4      -1.4       0. 
 Bq                    0.4      -1.2       0. 
 Bq                    0.4      -1.        0. 
 Bq                    0.4      -0.8       0. 
 Bq                    0.4      -0.6       0. 
 Bq                    0.4      -0.4       0. 
 Bq                    0.4      -0.2       0. 
 Bq                    0.4       0.        0. 
 Bq                    0.4       0.2       0. 
 Bq                    0.4       0.4       0. 
 Bq                    0.4       0.6       0. 
 Bq                    0.4       0.8       0. 
 Bq                    0.4       1.        0. 
 Bq                    0.4       1.2       0. 
 Bq                    0.4       1.4       0. 
 Bq                    0.4       1.6       0. 
 Bq                    0.4       1.8       0. 
 Bq                    0.4       2.        0. 
 Bq                    0.4       2.2       0. 
 Bq                    0.4       2.4       0. 
 Bq                    0.4       2.6       0. 
 Bq                    0.4       2.8       0. 
 Bq                    0.4       3.        0. 
 Bq                    0.6      -3.        0. 
 Bq                    0.6      -2.8       0. 
 Bq                    0.6      -2.6       0. 
 Bq                    0.6      -2.4       0. 
 Bq                    0.6      -2.2       0. 
 Bq                    0.6      -2.        0. 
 Bq                    0.6      -1.8       0. 
 Bq                    0.6      -1.6       0. 
 Bq                    0.6      -1.4       0. 
 Bq                    0.6      -1.2       0. 
 Bq                    0.6      -1.        0. 
 Bq                    0.6      -0.8       0. 
 Bq                    0.6      -0.6       0. 
 Bq                    0.6      -0.4       0. 
 Bq                    0.6      -0.2       0. 
 Bq                    0.6       0.        0. 
 Bq                    0.6       0.2       0. 
 Bq                    0.6       0.4       0. 
 Bq                    0.6       0.6       0. 
 Bq                    0.6       0.8       0. 
 Bq                    0.6       1.        0. 
 Bq                    0.6       1.2       0. 
 Bq                    0.6       1.4       0. 
 Bq                    0.6       1.6       0. 
 Bq                    0.6       1.8       0. 
 Bq                    0.6       2.        0. 
 Bq                    0.6       2.2       0. 
 Bq                    0.6       2.4       0. 
 Bq                    0.6       2.6       0. 
 Bq                    0.6       2.8       0. 
 Bq                    0.6       3.        0. 
 Bq                    0.8      -3.        0. 
 Bq                    0.8      -2.8       0. 
 Bq                    0.8      -2.6       0. 
 Bq                    0.8      -2.4       0. 
 Bq                    0.8      -2.2       0. 
 Bq                    0.8      -2.        0. 
 Bq                    0.8      -1.8       0. 
 Bq                    0.8      -1.6       0. 
 Bq                    0.8      -1.4       0. 
 Bq                    0.8      -1.2       0. 
 Bq                    0.8      -1.        0. 
 Bq                    0.8      -0.8       0. 
 Bq                    0.8      -0.6       0. 
 Bq                    0.8      -0.4       0. 
 Bq                    0.8      -0.2       0. 
 Bq                    0.8       0.        0. 
 Bq                    0.8       0.2       0. 
 Bq                    0.8       0.4       0. 
 Bq                    0.8       0.6       0. 
 Bq                    0.8       0.8       0. 
 Bq                    0.8       1.        0. 
 Bq                    0.8       1.2       0. 
 Bq                    0.8       1.4       0. 
 Bq                    0.8       1.6       0. 
 Bq                    0.8       1.8       0. 
 Bq                    0.8       2.        0. 
 Bq                    0.8       2.2       0. 
 Bq                    0.8       2.4       0. 
 Bq                    0.8       2.6       0. 
 Bq                    0.8       2.8       0. 
 Bq                    0.8       3.        0. 
 Bq                    1.       -3.        0. 
 Bq                    1.       -2.8       0. 
 Bq                    1.       -2.6       0. 
 Bq                    1.       -2.4       0. 
 Bq                    1.       -2.2       0. 
 Bq                    1.       -2.        0. 
 Bq                    1.       -1.8       0. 
 Bq                    1.       -1.6       0. 
 Bq                    1.       -1.4       0. 
 Bq                    1.       -1.2       0. 
 Bq                    1.       -1.        0. 
 Bq                    1.       -0.8       0. 
 Bq                    1.       -0.6       0. 
 Bq                    1.       -0.4       0. 
 Bq                    1.       -0.2       0. 
 Bq                    1.        0.        0. 
 Bq                    1.        0.2       0. 
 Bq                    1.        0.4       0. 
 Bq                    1.        0.6       0. 
 Bq                    1.        0.8       0. 
 Bq                    1.        1.        0. 
 Bq                    1.        1.2       0. 
 Bq                    1.        1.4       0. 
 Bq                    1.        1.6       0. 
 Bq                    1.        1.8       0. 
 Bq                    1.        2.        0. 
 Bq                    1.        2.2       0. 
 Bq                    1.        2.4       0. 
 Bq                    1.        2.6       0. 
 Bq                    1.        2.8       0. 
 Bq                    1.        3.        0. 
 Bq                    1.2      -3.        0. 
 Bq                    1.2      -2.8       0. 
 Bq                    1.2      -2.6       0. 
 Bq                    1.2      -2.4       0. 
 Bq                    1.2      -2.2       0. 
 Bq                    1.2      -2.        0. 
 Bq                    1.2      -1.8       0. 
 Bq                    1.2      -1.6       0. 
 Bq                    1.2      -1.4       0. 
 Bq                    1.2      -1.2       0. 
 Bq                    1.2      -1.        0. 
 Bq                    1.2      -0.8       0. 
 Bq                    1.2      -0.6       0. 
 Bq                    1.2      -0.4       0. 
 Bq                    1.2      -0.2       0. 
 Bq                    1.2       0.        0. 
 Bq                    1.2       0.2       0. 
 Bq                    1.2       0.4       0. 
 Bq                    1.2       0.6       0. 
 Bq                    1.2       0.8       0. 
 Bq                    1.2       1.        0. 
 Bq                    1.2       1.2       0. 
 Bq                    1.2       1.4       0. 
 Bq                    1.2       1.6       0. 
 Bq                    1.2       1.8       0. 
 Bq                    1.2       2.        0. 
 Bq                    1.2       2.2       0. 
 Bq                    1.2       2.4       0. 
 Bq                    1.2       2.6       0. 
 Bq                    1.2       2.8       0. 
 Bq                    1.2       3.        0. 
 Bq                    1.4      -3.        0. 
 Bq                    1.4      -2.8       0. 
 Bq                    1.4      -2.6       0. 
 Bq                    1.4      -2.4       0. 
 Bq                    1.4      -2.2       0. 
 Bq                    1.4      -2.        0. 
 Bq                    1.4      -1.8       0. 
 Bq                    1.4      -1.6       0. 
 Bq                    1.4      -1.4       0. 
 Bq                    1.4      -1.2       0. 
 Bq                    1.4      -1.        0. 
 Bq                    1.4      -0.8       0. 
 Bq                    1.4      -0.6       0. 
 Bq                    1.4      -0.4       0. 
 Bq                    1.4      -0.2       0. 
 Bq                    1.4       0.        0. 
 Bq                    1.4       0.2       0. 
 Bq                    1.4       0.4       0. 
 Bq                    1.4       0.6       0. 
 Bq                    1.4       0.8       0. 
 Bq                    1.4       1.        0. 
 Bq                    1.4       1.2       0. 
 Bq                    1.4       1.4       0. 
 Bq                    1.4       1.6       0. 
 Bq                    1.4       1.8       0. 
 Bq                    1.4       2.        0. 
 Bq                    1.4       2.2       0. 
 Bq                    1.4       2.4       0. 
 Bq                    1.4       2.6       0. 
 Bq                    1.4       2.8       0. 
 Bq                    1.4       3.        0. 
 Bq                    1.6      -3.        0. 
 Bq                    1.6      -2.8       0. 
 Bq                    1.6      -2.6       0. 
 Bq                    1.6      -2.4       0. 
 Bq                    1.6      -2.2       0. 
 Bq                    1.6      -2.        0. 
 Bq                    1.6      -1.8       0. 
 Bq                    1.6      -1.6       0. 
 Bq                    1.6      -1.4       0. 
 Bq                    1.6      -1.2       0. 
 Bq                    1.6      -1.        0. 
 Bq                    1.6      -0.8       0. 
 Bq                    1.6      -0.6       0. 
 Bq                    1.6      -0.4       0. 
 Bq                    1.6      -0.2       0. 
 Bq                    1.6       0.        0. 
 Bq                    1.6       0.2       0. 
 Bq                    1.6       0.4       0. 
 Bq                    1.6       0.6       0. 
 Bq                    1.6       0.8       0. 
 Bq                    1.6       1.        0. 
 Bq                    1.6       1.2       0. 
 Bq                    1.6       1.4       0. 
 Bq                    1.6       1.6       0. 
 Bq                    1.6       1.8       0. 
 Bq                    1.6       2.        0. 
 Bq                    1.6       2.2       0. 
 Bq                    1.6       2.4       0. 
 Bq                    1.6       2.6       0. 
 Bq                    1.6       2.8       0. 
 Bq                    1.6       3.        0. 
 Bq                    1.8      -3.        0. 
 Bq                    1.8      -2.8       0. 
 Bq                    1.8      -2.6       0. 
 Bq                    1.8      -2.4       0. 
 Bq                    1.8      -2.2       0. 
 Bq                    1.8      -2.        0. 
 Bq                    1.8      -1.8       0. 
 Bq                    1.8      -1.6       0. 
 Bq                    1.8      -1.4       0. 
 Bq                    1.8      -1.2       0. 
 Bq                    1.8      -1.        0. 
 Bq                    1.8      -0.8       0. 
 Bq                    1.8      -0.6       0. 
 Bq                    1.8      -0.4       0. 
 Bq                    1.8      -0.2       0. 
 Bq                    1.8       0.        0. 
 Bq                    1.8       0.2       0. 
 Bq                    1.8       0.4       0. 
 Bq                    1.8       0.6       0. 
 Bq                    1.8       0.8       0. 
 Bq                    1.8       1.        0. 
 Bq                    1.8       1.2       0. 
 Bq                    1.8       1.4       0. 
 Bq                    1.8       1.6       0. 
 Bq                    1.8       1.8       0. 
 Bq                    1.8       2.        0. 
 Bq                    1.8       2.2       0. 
 Bq                    1.8       2.4       0. 
 Bq                    1.8       2.6       0. 
 Bq                    1.8       2.8       0. 
 Bq                    1.8       3.        0. 
 Bq                    2.       -3.        0. 
 Bq                    2.       -2.8       0. 
 Bq                    2.       -2.6       0. 
 Bq                    2.       -2.4       0. 
 Bq                    2.       -2.2       0. 
 Bq                    2.       -2.        0. 
 Bq                    2.       -1.8       0. 
 Bq                    2.       -1.6       0. 
 Bq                    2.       -1.4       0. 
 Bq                    2.       -1.2       0. 
 Bq                    2.       -1.        0. 
 Bq                    2.       -0.8       0. 
 Bq                    2.       -0.6       0. 
 Bq                    2.       -0.4       0. 
 Bq                    2.       -0.2       0. 
 Bq                    2.        0.        0. 
 Bq                    2.        0.2       0. 
 Bq                    2.        0.4       0. 
 Bq                    2.        0.6       0. 
 Bq                    2.        0.8       0. 
 Bq                    2.        1.        0. 
 Bq                    2.        1.2       0. 
 Bq                    2.        1.4       0. 
 Bq                    2.        1.6       0. 
 Bq                    2.        1.8       0. 
 Bq                    2.        2.        0. 
 Bq                    2.        2.2       0. 
 Bq                    2.        2.4       0. 
 Bq                    2.        2.6       0. 
 Bq                    2.        2.8       0. 
 Bq                    2.        3.        0. 
 Bq                    2.2      -3.        0. 
 Bq                    2.2      -2.8       0. 
 Bq                    2.2      -2.6       0. 
 Bq                    2.2      -2.4       0. 
 Bq                    2.2      -2.2       0. 
 Bq                    2.2      -2.        0. 
 Bq                    2.2      -1.8       0. 
 Bq                    2.2      -1.6       0. 
 Bq                    2.2      -1.4       0. 
 Bq                    2.2      -1.2       0. 
 Bq                    2.2      -1.        0. 
 Bq                    2.2      -0.8       0. 
 Bq                    2.2      -0.6       0. 
 Bq                    2.2      -0.4       0. 
 Bq                    2.2      -0.2       0. 
 Bq                    2.2       0.        0. 
 Bq                    2.2       0.2       0. 
 Bq                    2.2       0.4       0. 
 Bq                    2.2       0.6       0. 
 Bq                    2.2       0.8       0. 
 Bq                    2.2       1.        0. 
 Bq                    2.2       1.2       0. 
 Bq                    2.2       1.4       0. 
 Bq                    2.2       1.6       0. 
 Bq                    2.2       1.8       0. 
 Bq                    2.2       2.        0. 
 Bq                    2.2       2.2       0. 
 Bq                    2.2       2.4       0. 
 Bq                    2.2       2.6       0. 
 Bq                    2.2       2.8       0. 
 Bq                    2.2       3.        0. 
 Bq                    2.4      -3.        0. 
 Bq                    2.4      -2.8       0. 
 Bq                    2.4      -2.6       0. 
 Bq                    2.4      -2.4       0. 
 Bq                    2.4      -2.2       0. 
 Bq                    2.4      -2.        0. 
 Bq                    2.4      -1.8       0. 
 Bq                    2.4      -1.6       0. 
 Bq                    2.4      -1.4       0. 
 Bq                    2.4      -1.2       0. 
 Bq                    2.4      -1.        0. 
 Bq                    2.4      -0.8       0. 
 Bq                    2.4      -0.6       0. 
 Bq                    2.4      -0.4       0. 
 Bq                    2.4      -0.2       0. 
 Bq                    2.4       0.        0. 
 Bq                    2.4       0.2       0. 
 Bq                    2.4       0.4       0. 
 Bq                    2.4       0.6       0. 
 Bq                    2.4       0.8       0. 
 Bq                    2.4       1.        0. 
 Bq                    2.4       1.2       0. 
 Bq                    2.4       1.4       0. 
 Bq                    2.4       1.6       0. 
 Bq                    2.4       1.8       0. 
 Bq                    2.4       2.        0. 
 Bq                    2.4       2.2       0. 
 Bq                    2.4       2.4       0. 
 Bq                    2.4       2.6       0. 
 Bq                    2.4       2.8       0. 
 Bq                    2.4       3.        0. 
 Bq                    2.6      -3.        0. 
 Bq                    2.6      -2.8       0. 
 Bq                    2.6      -2.6       0. 
 Bq                    2.6      -2.4       0. 
 Bq                    2.6      -2.2       0. 
 Bq                    2.6      -2.        0. 
 Bq                    2.6      -1.8       0. 
 Bq                    2.6      -1.6       0. 
 Bq                    2.6      -1.4       0. 
 Bq                    2.6      -1.2       0. 
 Bq                    2.6      -1.        0. 
 Bq                    2.6      -0.8       0. 
 Bq                    2.6      -0.6       0. 
 Bq                    2.6      -0.4       0. 
 Bq                    2.6      -0.2       0. 
 Bq                    2.6       0.        0. 
 Bq                    2.6       0.2       0. 
 Bq                    2.6       0.4       0. 
 Bq                    2.6       0.6       0. 
 Bq                    2.6       0.8       0. 
 Bq                    2.6       1.        0. 
 Bq                    2.6       1.2       0. 
 Bq                    2.6       1.4       0. 
 Bq                    2.6       1.6       0. 
 Bq                    2.6       1.8       0. 
 Bq                    2.6       2.        0. 
 Bq                    2.6       2.2       0. 
 Bq                    2.6       2.4       0. 
 Bq                    2.6       2.6       0. 
 Bq                    2.6       2.8       0. 
 Bq                    2.6       3.        0. 
 Bq                    2.8      -3.        0. 
 Bq                    2.8      -2.8       0. 
 Bq                    2.8      -2.6       0. 
 Bq                    2.8      -2.4       0. 
 Bq                    2.8      -2.2       0. 
 Bq                    2.8      -2.        0. 
 Bq                    2.8      -1.8       0. 
 Bq                    2.8      -1.6       0. 
 Bq                    2.8      -1.4       0. 
 Bq                    2.8      -1.2       0. 
 Bq                    2.8      -1.        0. 
 Bq                    2.8      -0.8       0. 
 Bq                    2.8      -0.6       0. 
 Bq                    2.8      -0.4       0. 
 Bq                    2.8      -0.2       0. 
 Bq                    2.8       0.        0. 
 Bq                    2.8       0.2       0. 
 Bq                    2.8       0.4       0. 
 Bq                    2.8       0.6       0. 
 Bq                    2.8       0.8       0. 
 Bq                    2.8       1.        0. 
 Bq                    2.8       1.2       0. 
 Bq                    2.8       1.4       0. 
 Bq                    2.8       1.6       0. 
 Bq                    2.8       1.8       0. 
 Bq                    2.8       2.        0. 
 Bq                    2.8       2.2       0. 
 Bq                    2.8       2.4       0. 
 Bq                    2.8       2.6       0. 
 Bq                    2.8       2.8       0. 
 Bq                    2.8       3.        0. 
 Bq                    3.       -3.        0. 
 Bq                    3.       -2.8       0. 
 Bq                    3.       -2.6       0. 
 Bq                    3.       -2.4       0. 
 Bq                    3.       -2.2       0. 
 Bq                    3.       -2.        0. 
 Bq                    3.       -1.8       0. 
 Bq                    3.       -1.6       0. 
 Bq                    3.       -1.4       0. 
 Bq                    3.       -1.2       0. 
 Bq                    3.       -1.        0. 
 Bq                    3.       -0.8       0. 
 Bq                    3.       -0.6       0. 
 Bq                    3.       -0.4       0. 
 Bq                    3.       -0.2       0. 
 Bq                    3.        0.        0. 
 Bq                    3.        0.2       0. 
 Bq                    3.        0.4       0. 
 Bq                    3.        0.6       0. 
 Bq                    3.        0.8       0. 
 Bq                    3.        1.        0. 
 Bq                    3.        1.2       0. 
 Bq                    3.        1.4       0. 
 Bq                    3.        1.6       0. 
 Bq                    3.        1.8       0. 
 Bq                    3.        2.        0. 
 Bq                    3.        2.2       0. 
 Bq                    3.        2.4       0. 
 Bq                    3.        2.6       0. 
 Bq                    3.        2.8       0. 
 Bq                    3.        3.        0. 
 
 ITRead=  0  0  0  0  0  0  0  0  0  0  0  0  0  0  0  0  0  0  0  0
 ITRead=  0  0  0  0  0  0  0  0  0  0  0  0  0  0  0  0  0  0  0  0
 ITRead=  0  0  0  0  0  0  0  0  0  0  0  0  0  0  0  0  0  0  0  0
 ITRead=  0  0  0  0  0  0  0  0  0  0  0  0  0  0  0  0  0  0  0  0
 ITRead=  0  0  0  0  0  0  0  0  0  0  0  0  0  0  0  0  0  0  0  0
 ITRead=  0  0  0  0  0  0  0  0  0  0  0  0  0  0  0  0  0  0  0  0
 ITRead=  0  0  0  0  0  0  0  0  0  0  0  0  0  0  0  0  0  0  0  0
 ITRead=  0  0  0  0  0  0  0  0  0  0  0  0  0  0  0  0  0  0  0  0
 ITRead=  0  0  0  0  0  0  0  0  0  0  0  0  0  0  0  0  0  0  0  0
 ITRead=  0  0  0  0  0  0  0  0  0  0  0  0  0  0  0  0  0  0  0  0
 ITRead=  0  0  0  0  0  0  0  0  0  0  0  0  0  0  0  0  0  0  0  0
 ITRead=  0  0  0  0  0  0  0  0  0  0  0  0  0  0  0  0  0  0  0  0
 ITRead=  0  0  0  0  0  0  0  0  0  0  0  0  0  0  0  0  0  0  0  0
 ITRead=  0  0  0  0  0  0  0  0  0  0  0  0  0  0  0  0  0  0  0  0
 ITRead=  0  0  0  0  0  0  0  0  0  0  0  0  0  0  0  0  0  0  0  0
 ITRead=  0  0  0  0  0  0  0  0  0  0  0  0  0  0  0  0  0  0  0  0
 ITRead=  0  0  0  0  0  0  0  0  0  0  0  0  0  0  0  0  0  0  0  0
 ITRead=  0  0  0  0  0  0  0  0  0  0  0  0  0  0  0  0  0  0  0  0
 ITRead=  0  0  0  0  0  0  0  0  0  0  0  0  0  0  0  0  0  0  0  0
 ITRead=  0  0  0  0  0  0  0  0  0  0  0  0  0  0  0  0  0  0  0  0
 ITRead=  0  0  0  0  0  0  0  0  0  0  0  0  0  0  0  0  0  0  0  0
 ITRead=  0  0  0  0  0  0  0  0  0  0  0  0  0  0  0  0  0  0  0  0
 ITRead=  0  0  0  0  0  0  0  0  0  0  0  0  0  0  0  0  0  0  0  0
 ITRead=  0  0  0  0  0  0  0  0  0  0  0  0  0  0  0  0  0  0  0  0
 ITRead=  0  0  0  0  0  0  0  0  0  0  0  0  0  0  0  0  0  0  0  0
 ITRead=  0  0  0  0  0  0  0  0  0  0  0  0  0  0  0  0  0  0  0  0
 ITRead=  0  0  0  0  0  0  0  0  0  0  0  0  0  0  0  0  0  0  0  0
 ITRead=  0  0  0  0  0  0  0  0  0  0  0  0  0  0  0  0  0  0  0  0
 ITRead=  0  0  0  0  0  0  0  0  0  0  0  0  0  0  0  0  0  0  0  0
 ITRead=  0  0  0  0  0  0  0  0  0  0  0  0  0  0  0  0  0  0  0  0
 ITRead=  0  0  0  0  0  0  0  0  0  0  0  0  0  0  0  0  0  0  0  0
 ITRead=  0  0  0  0  0  0  0  0  0  0  0  0  0  0  0  0  0  0  0  0
 ITRead=  0  0  0  0  0  0  0  0  0  0  0  0  0  0  0  0  0  0  0  0
 ITRead=  0  0  0  0  0  0  0  0  0  0  0  0  0  0  0  0  0  0  0  0
 ITRead=  0  0  0  0  0  0  0  0  0  0  0  0  0  0  0  0  0  0  0  0
 ITRead=  0  0  0  0  0  0  0  0  0  0  0  0  0  0  0  0  0  0  0  0
 ITRead=  0  0  0  0  0  0  0  0  0  0  0  0  0  0  0  0  0  0  0  0
 ITRead=  0  0  0  0  0  0  0  0  0  0  0  0  0  0  0  0  0  0  0  0
 ITRead=  0  0  0  0  0  0  0  0  0  0  0  0  0  0  0  0  0  0  0  0
 ITRead=  0  0  0  0  0  0  0  0  0  0  0  0  0  0  0  0  0  0  0  0
 ITRead=  0  0  0  0  0  0  0  0  0  0  0  0  0  0  0  0  0  0  0  0
 ITRead=  0  0  0  0  0  0  0  0  0  0  0  0  0  0  0  0  0  0  0  0
 ITRead=  0  0  0  0  0  0  0  0  0  0  0  0  0  0  0  0  0  0  0  0
 ITRead=  0  0  0  0  0  0  0  0  0  0  0  0  0  0  0  0  0  0  0  0
 ITRead=  0  0  0  0  0  0  0  0  0  0  0  0  0  0  0  0  0  0  0  0
 ITRead=  0  0  0  0  0  0  0  0  0  0  0  0  0  0  0  0  0  0  0  0
 ITRead=  0  0  0  0  0  0  0  0  0  0  0  0  0  0  0  0  0  0  0  0
 ITRead=  0  0  0  0  0  0  0  0  0  0  0  0  0  0  0  0  0  0  0  0
 ITRead=  0  0  0  0  0  0  0  0  0  0  0  0  0
 MicOpt= -1 -1 -1 -1 -1 -1 -1 -1 -1 -1 -1 -1 -1 -1 -1 -1 -1 -1 -1 -1
 MicOpt= -1 -1 -1 -1 -1 -1 -1 -1 -1 -1 -1 -1 -1 -1 -1 -1 -1 -1 -1 -1
 MicOpt= -1 -1 -1 -1 -1 -1 -1 -1 -1 -1 -1 -1 -1 -1 -1 -1 -1 -1 -1 -1
 MicOpt= -1 -1 -1 -1 -1 -1 -1 -1 -1 -1 -1 -1 -1 -1 -1 -1 -1 -1 -1 -1
 MicOpt= -1 -1 -1 -1 -1 -1 -1 -1 -1 -1 -1 -1 -1 -1 -1 -1 -1 -1 -1 -1
 MicOpt= -1 -1 -1 -1 -1 -1 -1 -1 -1 -1 -1 -1 -1 -1 -1 -1 -1 -1 -1 -1
 MicOpt= -1 -1 -1 -1 -1 -1 -1 -1 -1 -1 -1 -1 -1 -1 -1 -1 -1 -1 -1 -1
 MicOpt= -1 -1 -1 -1 -1 -1 -1 -1 -1 -1 -1 -1 -1 -1 -1 -1 -1 -1 -1 -1
 MicOpt= -1 -1 -1 -1 -1 -1 -1 -1 -1 -1 -1 -1 -1 -1 -1 -1 -1 -1 -1 -1
 MicOpt= -1 -1 -1 -1 -1 -1 -1 -1 -1 -1 -1 -1 -1 -1 -1 -1 -1 -1 -1 -1
 MicOpt= -1 -1 -1 -1 -1 -1 -1 -1 -1 -1 -1 -1 -1 -1 -1 -1 -1 -1 -1 -1
 MicOpt= -1 -1 -1 -1 -1 -1 -1 -1 -1 -1 -1 -1 -1 -1 -1 -1 -1 -1 -1 -1
 MicOpt= -1 -1 -1 -1 -1 -1 -1 -1 -1 -1 -1 -1 -1 -1 -1 -1 -1 -1 -1 -1
 MicOpt= -1 -1 -1 -1 -1 -1 -1 -1 -1 -1 -1 -1 -1 -1 -1 -1 -1 -1 -1 -1
 MicOpt= -1 -1 -1 -1 -1 -1 -1 -1 -1 -1 -1 -1 -1 -1 -1 -1 -1 -1 -1 -1
 MicOpt= -1 -1 -1 -1 -1 -1 -1 -1 -1 -1 -1 -1 -1 -1 -1 -1 -1 -1 -1 -1
 MicOpt= -1 -1 -1 -1 -1 -1 -1 -1 -1 -1 -1 -1 -1 -1 -1 -1 -1 -1 -1 -1
 MicOpt= -1 -1 -1 -1 -1 -1 -1 -1 -1 -1 -1 -1 -1 -1 -1 -1 -1 -1 -1 -1
 MicOpt= -1 -1 -1 -1 -1 -1 -1 -1 -1 -1 -1 -1 -1 -1 -1 -1 -1 -1 -1 -1
 MicOpt= -1 -1 -1 -1 -1 -1 -1 -1 -1 -1 -1 -1 -1 -1 -1 -1 -1 -1 -1 -1
 MicOpt= -1 -1 -1 -1 -1 -1 -1 -1 -1 -1 -1 -1 -1 -1 -1 -1 -1 -1 -1 -1
 MicOpt= -1 -1 -1 -1 -1 -1 -1 -1 -1 -1 -1 -1 -1 -1 -1 -1 -1 -1 -1 -1
 MicOpt= -1 -1 -1 -1 -1 -1 -1 -1 -1 -1 -1 -1 -1 -1 -1 -1 -1 -1 -1 -1
 MicOpt= -1 -1 -1 -1 -1 -1 -1 -1 -1 -1 -1 -1 -1 -1 -1 -1 -1 -1 -1 -1
 MicOpt= -1 -1 -1 -1 -1 -1 -1 -1 -1 -1 -1 -1 -1 -1 -1 -1 -1 -1 -1 -1
 MicOpt= -1 -1 -1 -1 -1 -1 -1 -1 -1 -1 -1 -1 -1 -1 -1 -1 -1 -1 -1 -1
 MicOpt= -1 -1 -1 -1 -1 -1 -1 -1 -1 -1 -1 -1 -1 -1 -1 -1 -1 -1 -1 -1
 MicOpt= -1 -1 -1 -1 -1 -1 -1 -1 -1 -1 -1 -1 -1 -1 -1 -1 -1 -1 -1 -1
 MicOpt= -1 -1 -1 -1 -1 -1 -1 -1 -1 -1 -1 -1 -1 -1 -1 -1 -1 -1 -1 -1
 MicOpt= -1 -1 -1 -1 -1 -1 -1 -1 -1 -1 -1 -1 -1 -1 -1 -1 -1 -1 -1 -1
 MicOpt= -1 -1 -1 -1 -1 -1 -1 -1 -1 -1 -1 -1 -1 -1 -1 -1 -1 -1 -1 -1
 MicOpt= -1 -1 -1 -1 -1 -1 -1 -1 -1 -1 -1 -1 -1 -1 -1 -1 -1 -1 -1 -1
 MicOpt= -1 -1 -1 -1 -1 -1 -1 -1 -1 -1 -1 -1 -1 -1 -1 -1 -1 -1 -1 -1
 MicOpt= -1 -1 -1 -1 -1 -1 -1 -1 -1 -1 -1 -1 -1 -1 -1 -1 -1 -1 -1 -1
 MicOpt= -1 -1 -1 -1 -1 -1 -1 -1 -1 -1 -1 -1 -1 -1 -1 -1 -1 -1 -1 -1
 MicOpt= -1 -1 -1 -1 -1 -1 -1 -1 -1 -1 -1 -1 -1 -1 -1 -1 -1 -1 -1 -1
 MicOpt= -1 -1 -1 -1 -1 -1 -1 -1 -1 -1 -1 -1 -1 -1 -1 -1 -1 -1 -1 -1
 MicOpt= -1 -1 -1 -1 -1 -1 -1 -1 -1 -1 -1 -1 -1 -1 -1 -1 -1 -1 -1 -1
 MicOpt= -1 -1 -1 -1 -1 -1 -1 -1 -1 -1 -1 -1 -1 -1 -1 -1 -1 -1 -1 -1
 MicOpt= -1 -1 -1 -1 -1 -1 -1 -1 -1 -1 -1 -1 -1 -1 -1 -1 -1 -1 -1 -1
 MicOpt= -1 -1 -1 -1 -1 -1 -1 -1 -1 -1 -1 -1 -1 -1 -1 -1 -1 -1 -1 -1
 MicOpt= -1 -1 -1 -1 -1 -1 -1 -1 -1 -1 -1 -1 -1 -1 -1 -1 -1 -1 -1 -1
 MicOpt= -1 -1 -1 -1 -1 -1 -1 -1 -1 -1 -1 -1 -1 -1 -1 -1 -1 -1 -1 -1
 MicOpt= -1 -1 -1 -1 -1 -1 -1 -1 -1 -1 -1 -1 -1 -1 -1 -1 -1 -1 -1 -1
 MicOpt= -1 -1 -1 -1 -1 -1 -1 -1 -1 -1 -1 -1 -1 -1 -1 -1 -1 -1 -1 -1
 MicOpt= -1 -1 -1 -1 -1 -1 -1 -1 -1 -1 -1 -1 -1 -1 -1 -1 -1 -1 -1 -1
 MicOpt= -1 -1 -1 -1 -1 -1 -1 -1 -1 -1 -1 -1 -1 -1 -1 -1 -1 -1 -1 -1
 MicOpt= -1 -1 -1 -1 -1 -1 -1 -1 -1 -1 -1 -1 -1 -1 -1 -1 -1 -1 -1 -1
 MicOpt= -1 -1 -1 -1 -1 -1 -1 -1 -1 -1 -1 -1 -1
 NAtoms=    973 NQM=      973 NQMF=       0 NMMI=      0 NMMIF=      0
                NMic=       0 NMicF=      0.
                    Isotopes and Nuclear Properties:
 (Nuclear quadrupole moments (NQMom) in fm**2, nuclear magnetic moments (NMagM)
  in nuclear magnetons)

  Atom         1           2           3           4           5           6           7           8           9          10
 IAtWgt=          12          12          12          12          12          12           1           1           1           1
 AtmWgt=  12.0000000  12.0000000  12.0000000  12.0000000  12.0000000  12.0000000   1.0078250   1.0078250   1.0078250   1.0078250
 NucSpn=           0           0           0           0           0           0           1           1           1           1
 AtZEff=  -0.0000000  -0.0000000  -0.0000000  -0.0000000  -0.0000000  -0.0000000  -0.0000000  -0.0000000  -0.0000000  -0.0000000
 NQMom=    0.0000000   0.0000000   0.0000000   0.0000000   0.0000000   0.0000000   0.0000000   0.0000000   0.0000000   0.0000000
 NMagM=    0.0000000   0.0000000   0.0000000   0.0000000   0.0000000   0.0000000   2.7928460   2.7928460   2.7928460   2.7928460
 AtZNuc=   6.0000000   6.0000000   6.0000000   6.0000000   6.0000000   6.0000000   1.0000000   1.0000000   1.0000000   1.0000000

  Atom        11          12          13          14          15          16          17          18          19          20
 IAtWgt=           1           1           0           0           0           0           0           0           0           0
 AtmWgt=   1.0078250   1.0078250   0.0000000   0.0000000   0.0000000   0.0000000   0.0000000   0.0000000   0.0000000   0.0000000
 NucSpn=           1           1           0           0           0           0           0           0           0           0
 AtZEff=  -0.0000000  -0.0000000  -0.0000000  -0.0000000  -0.0000000  -0.0000000  -0.0000000  -0.0000000  -0.0000000  -0.0000000
 NQMom=    0.0000000   0.0000000   0.0000000   0.0000000   0.0000000   0.0000000   0.0000000   0.0000000   0.0000000   0.0000000
 NMagM=    2.7928460   2.7928460   0.0000000   0.0000000   0.0000000   0.0000000   0.0000000   0.0000000   0.0000000   0.0000000
 AtZNuc=   1.0000000   1.0000000   0.0000000   0.0000000   0.0000000   0.0000000   0.0000000   0.0000000   0.0000000   0.0000000

  Atom        21          22          23          24          25          26          27          28          29          30
 IAtWgt=           0           0           0           0           0           0           0           0           0           0
 AtmWgt=   0.0000000   0.0000000   0.0000000   0.0000000   0.0000000   0.0000000   0.0000000   0.0000000   0.0000000   0.0000000
 NucSpn=           0           0           0           0           0           0           0           0           0           0
 AtZEff=  -0.0000000  -0.0000000  -0.0000000  -0.0000000  -0.0000000  -0.0000000  -0.0000000  -0.0000000  -0.0000000  -0.0000000
 NQMom=    0.0000000   0.0000000   0.0000000   0.0000000   0.0000000   0.0000000   0.0000000   0.0000000   0.0000000   0.0000000
 NMagM=    0.0000000   0.0000000   0.0000000   0.0000000   0.0000000   0.0000000   0.0000000   0.0000000   0.0000000   0.0000000
 AtZNuc=   0.0000000   0.0000000   0.0000000   0.0000000   0.0000000   0.0000000   0.0000000   0.0000000   0.0000000   0.0000000

  Atom        31          32          33          34          35          36          37          38          39          40
 IAtWgt=           0           0           0           0           0           0           0           0           0           0
 AtmWgt=   0.0000000   0.0000000   0.0000000   0.0000000   0.0000000   0.0000000   0.0000000   0.0000000   0.0000000   0.0000000
 NucSpn=           0           0           0           0           0           0           0           0           0           0
 AtZEff=  -0.0000000  -0.0000000  -0.0000000  -0.0000000  -0.0000000  -0.0000000  -0.0000000  -0.0000000  -0.0000000  -0.0000000
 NQMom=    0.0000000   0.0000000   0.0000000   0.0000000   0.0000000   0.0000000   0.0000000   0.0000000   0.0000000   0.0000000
 NMagM=    0.0000000   0.0000000   0.0000000   0.0000000   0.0000000   0.0000000   0.0000000   0.0000000   0.0000000   0.0000000
 AtZNuc=   0.0000000   0.0000000   0.0000000   0.0000000   0.0000000   0.0000000   0.0000000   0.0000000   0.0000000   0.0000000

  Atom        41          42          43          44          45          46          47          48          49          50
 IAtWgt=           0           0           0           0           0           0           0           0           0           0
 AtmWgt=   0.0000000   0.0000000   0.0000000   0.0000000   0.0000000   0.0000000   0.0000000   0.0000000   0.0000000   0.0000000
 NucSpn=           0           0           0           0           0           0           0           0           0           0
 AtZEff=  -0.0000000  -0.0000000  -0.0000000  -0.0000000  -0.0000000  -0.0000000  -0.0000000  -0.0000000  -0.0000000  -0.0000000
 NQMom=    0.0000000   0.0000000   0.0000000   0.0000000   0.0000000   0.0000000   0.0000000   0.0000000   0.0000000   0.0000000
 NMagM=    0.0000000   0.0000000   0.0000000   0.0000000   0.0000000   0.0000000   0.0000000   0.0000000   0.0000000   0.0000000
 AtZNuc=   0.0000000   0.0000000   0.0000000   0.0000000   0.0000000   0.0000000   0.0000000   0.0000000   0.0000000   0.0000000

  Atom        51          52          53          54          55          56          57          58          59          60
 IAtWgt=           0           0           0           0           0           0           0           0           0           0
 AtmWgt=   0.0000000   0.0000000   0.0000000   0.0000000   0.0000000   0.0000000   0.0000000   0.0000000   0.0000000   0.0000000
 NucSpn=           0           0           0           0           0           0           0           0           0           0
 AtZEff=  -0.0000000  -0.0000000  -0.0000000  -0.0000000  -0.0000000  -0.0000000  -0.0000000  -0.0000000  -0.0000000  -0.0000000
 NQMom=    0.0000000   0.0000000   0.0000000   0.0000000   0.0000000   0.0000000   0.0000000   0.0000000   0.0000000   0.0000000
 NMagM=    0.0000000   0.0000000   0.0000000   0.0000000   0.0000000   0.0000000   0.0000000   0.0000000   0.0000000   0.0000000
 AtZNuc=   0.0000000   0.0000000   0.0000000   0.0000000   0.0000000   0.0000000   0.0000000   0.0000000   0.0000000   0.0000000

  Atom        61          62          63          64          65          66          67          68          69          70
 IAtWgt=           0           0           0           0           0           0           0           0           0           0
 AtmWgt=   0.0000000   0.0000000   0.0000000   0.0000000   0.0000000   0.0000000   0.0000000   0.0000000   0.0000000   0.0000000
 NucSpn=           0           0           0           0           0           0           0           0           0           0
 AtZEff=  -0.0000000  -0.0000000  -0.0000000  -0.0000000  -0.0000000  -0.0000000  -0.0000000  -0.0000000  -0.0000000  -0.0000000
 NQMom=    0.0000000   0.0000000   0.0000000   0.0000000   0.0000000   0.0000000   0.0000000   0.0000000   0.0000000   0.0000000
 NMagM=    0.0000000   0.0000000   0.0000000   0.0000000   0.0000000   0.0000000   0.0000000   0.0000000   0.0000000   0.0000000
 AtZNuc=   0.0000000   0.0000000   0.0000000   0.0000000   0.0000000   0.0000000   0.0000000   0.0000000   0.0000000   0.0000000

  Atom        71          72          73          74          75          76          77          78          79          80
 IAtWgt=           0           0           0           0           0           0           0           0           0           0
 AtmWgt=   0.0000000   0.0000000   0.0000000   0.0000000   0.0000000   0.0000000   0.0000000   0.0000000   0.0000000   0.0000000
 NucSpn=           0           0           0           0           0           0           0           0           0           0
 AtZEff=  -0.0000000  -0.0000000  -0.0000000  -0.0000000  -0.0000000  -0.0000000  -0.0000000  -0.0000000  -0.0000000  -0.0000000
 NQMom=    0.0000000   0.0000000   0.0000000   0.0000000   0.0000000   0.0000000   0.0000000   0.0000000   0.0000000   0.0000000
 NMagM=    0.0000000   0.0000000   0.0000000   0.0000000   0.0000000   0.0000000   0.0000000   0.0000000   0.0000000   0.0000000
 AtZNuc=   0.0000000   0.0000000   0.0000000   0.0000000   0.0000000   0.0000000   0.0000000   0.0000000   0.0000000   0.0000000

  Atom        81          82          83          84          85          86          87          88          89          90
 IAtWgt=           0           0           0           0           0           0           0           0           0           0
 AtmWgt=   0.0000000   0.0000000   0.0000000   0.0000000   0.0000000   0.0000000   0.0000000   0.0000000   0.0000000   0.0000000
 NucSpn=           0           0           0           0           0           0           0           0           0           0
 AtZEff=  -0.0000000  -0.0000000  -0.0000000  -0.0000000  -0.0000000  -0.0000000  -0.0000000  -0.0000000  -0.0000000  -0.0000000
 NQMom=    0.0000000   0.0000000   0.0000000   0.0000000   0.0000000   0.0000000   0.0000000   0.0000000   0.0000000   0.0000000
 NMagM=    0.0000000   0.0000000   0.0000000   0.0000000   0.0000000   0.0000000   0.0000000   0.0000000   0.0000000   0.0000000
 AtZNuc=   0.0000000   0.0000000   0.0000000   0.0000000   0.0000000   0.0000000   0.0000000   0.0000000   0.0000000   0.0000000

  Atom        91          92          93          94          95          96          97          98          99         100
 IAtWgt=           0           0           0           0           0           0           0           0           0           0
 AtmWgt=   0.0000000   0.0000000   0.0000000   0.0000000   0.0000000   0.0000000   0.0000000   0.0000000   0.0000000   0.0000000
 NucSpn=           0           0           0           0           0           0           0           0           0           0
 AtZEff=  -0.0000000  -0.0000000  -0.0000000  -0.0000000  -0.0000000  -0.0000000  -0.0000000  -0.0000000  -0.0000000  -0.0000000
 NQMom=    0.0000000   0.0000000   0.0000000   0.0000000   0.0000000   0.0000000   0.0000000   0.0000000   0.0000000   0.0000000
 NMagM=    0.0000000   0.0000000   0.0000000   0.0000000   0.0000000   0.0000000   0.0000000   0.0000000   0.0000000   0.0000000
 AtZNuc=   0.0000000   0.0000000   0.0000000   0.0000000   0.0000000   0.0000000   0.0000000   0.0000000   0.0000000   0.0000000

  Atom       101         102         103         104         105         106         107         108         109         110
 IAtWgt=           0           0           0           0           0           0           0           0           0           0
 AtmWgt=   0.0000000   0.0000000   0.0000000   0.0000000   0.0000000   0.0000000   0.0000000   0.0000000   0.0000000   0.0000000
 NucSpn=           0           0           0           0           0           0           0           0           0           0
 AtZEff=  -0.0000000  -0.0000000  -0.0000000  -0.0000000  -0.0000000  -0.0000000  -0.0000000  -0.0000000  -0.0000000  -0.0000000
 NQMom=    0.0000000   0.0000000   0.0000000   0.0000000   0.0000000   0.0000000   0.0000000   0.0000000   0.0000000   0.0000000
 NMagM=    0.0000000   0.0000000   0.0000000   0.0000000   0.0000000   0.0000000   0.0000000   0.0000000   0.0000000   0.0000000
 AtZNuc=   0.0000000   0.0000000   0.0000000   0.0000000   0.0000000   0.0000000   0.0000000   0.0000000   0.0000000   0.0000000

  Atom       111         112         113         114         115         116         117         118         119         120
 IAtWgt=           0           0           0           0           0           0           0           0           0           0
 AtmWgt=   0.0000000   0.0000000   0.0000000   0.0000000   0.0000000   0.0000000   0.0000000   0.0000000   0.0000000   0.0000000
 NucSpn=           0           0           0           0           0           0           0           0           0           0
 AtZEff=  -0.0000000  -0.0000000  -0.0000000  -0.0000000  -0.0000000  -0.0000000  -0.0000000  -0.0000000  -0.0000000  -0.0000000
 NQMom=    0.0000000   0.0000000   0.0000000   0.0000000   0.0000000   0.0000000   0.0000000   0.0000000   0.0000000   0.0000000
 NMagM=    0.0000000   0.0000000   0.0000000   0.0000000   0.0000000   0.0000000   0.0000000   0.0000000   0.0000000   0.0000000
 AtZNuc=   0.0000000   0.0000000   0.0000000   0.0000000   0.0000000   0.0000000   0.0000000   0.0000000   0.0000000   0.0000000

  Atom       121         122         123         124         125         126         127         128         129         130
 IAtWgt=           0           0           0           0           0           0           0           0           0           0
 AtmWgt=   0.0000000   0.0000000   0.0000000   0.0000000   0.0000000   0.0000000   0.0000000   0.0000000   0.0000000   0.0000000
 NucSpn=           0           0           0           0           0           0           0           0           0           0
 AtZEff=  -0.0000000  -0.0000000  -0.0000000  -0.0000000  -0.0000000  -0.0000000  -0.0000000  -0.0000000  -0.0000000  -0.0000000
 NQMom=    0.0000000   0.0000000   0.0000000   0.0000000   0.0000000   0.0000000   0.0000000   0.0000000   0.0000000   0.0000000
 NMagM=    0.0000000   0.0000000   0.0000000   0.0000000   0.0000000   0.0000000   0.0000000   0.0000000   0.0000000   0.0000000
 AtZNuc=   0.0000000   0.0000000   0.0000000   0.0000000   0.0000000   0.0000000   0.0000000   0.0000000   0.0000000   0.0000000

  Atom       131         132         133         134         135         136         137         138         139         140
 IAtWgt=           0           0           0           0           0           0           0           0           0           0
 AtmWgt=   0.0000000   0.0000000   0.0000000   0.0000000   0.0000000   0.0000000   0.0000000   0.0000000   0.0000000   0.0000000
 NucSpn=           0           0           0           0           0           0           0           0           0           0
 AtZEff=  -0.0000000  -0.0000000  -0.0000000  -0.0000000  -0.0000000  -0.0000000  -0.0000000  -0.0000000  -0.0000000  -0.0000000
 NQMom=    0.0000000   0.0000000   0.0000000   0.0000000   0.0000000   0.0000000   0.0000000   0.0000000   0.0000000   0.0000000
 NMagM=    0.0000000   0.0000000   0.0000000   0.0000000   0.0000000   0.0000000   0.0000000   0.0000000   0.0000000   0.0000000
 AtZNuc=   0.0000000   0.0000000   0.0000000   0.0000000   0.0000000   0.0000000   0.0000000   0.0000000   0.0000000   0.0000000

  Atom       141         142         143         144         145         146         147         148         149         150
 IAtWgt=           0           0           0           0           0           0           0           0           0           0
 AtmWgt=   0.0000000   0.0000000   0.0000000   0.0000000   0.0000000   0.0000000   0.0000000   0.0000000   0.0000000   0.0000000
 NucSpn=           0           0           0           0           0           0           0           0           0           0
 AtZEff=  -0.0000000  -0.0000000  -0.0000000  -0.0000000  -0.0000000  -0.0000000  -0.0000000  -0.0000000  -0.0000000  -0.0000000
 NQMom=    0.0000000   0.0000000   0.0000000   0.0000000   0.0000000   0.0000000   0.0000000   0.0000000   0.0000000   0.0000000
 NMagM=    0.0000000   0.0000000   0.0000000   0.0000000   0.0000000   0.0000000   0.0000000   0.0000000   0.0000000   0.0000000
 AtZNuc=   0.0000000   0.0000000   0.0000000   0.0000000   0.0000000   0.0000000   0.0000000   0.0000000   0.0000000   0.0000000

  Atom       151         152         153         154         155         156         157         158         159         160
 IAtWgt=           0           0           0           0           0           0           0           0           0           0
 AtmWgt=   0.0000000   0.0000000   0.0000000   0.0000000   0.0000000   0.0000000   0.0000000   0.0000000   0.0000000   0.0000000
 NucSpn=           0           0           0           0           0           0           0           0           0           0
 AtZEff=  -0.0000000  -0.0000000  -0.0000000  -0.0000000  -0.0000000  -0.0000000  -0.0000000  -0.0000000  -0.0000000  -0.0000000
 NQMom=    0.0000000   0.0000000   0.0000000   0.0000000   0.0000000   0.0000000   0.0000000   0.0000000   0.0000000   0.0000000
 NMagM=    0.0000000   0.0000000   0.0000000   0.0000000   0.0000000   0.0000000   0.0000000   0.0000000   0.0000000   0.0000000
 AtZNuc=   0.0000000   0.0000000   0.0000000   0.0000000   0.0000000   0.0000000   0.0000000   0.0000000   0.0000000   0.0000000

  Atom       161         162         163         164         165         166         167         168         169         170
 IAtWgt=           0           0           0           0           0           0           0           0           0           0
 AtmWgt=   0.0000000   0.0000000   0.0000000   0.0000000   0.0000000   0.0000000   0.0000000   0.0000000   0.0000000   0.0000000
 NucSpn=           0           0           0           0           0           0           0           0           0           0
 AtZEff=  -0.0000000  -0.0000000  -0.0000000  -0.0000000  -0.0000000  -0.0000000  -0.0000000  -0.0000000  -0.0000000  -0.0000000
 NQMom=    0.0000000   0.0000000   0.0000000   0.0000000   0.0000000   0.0000000   0.0000000   0.0000000   0.0000000   0.0000000
 NMagM=    0.0000000   0.0000000   0.0000000   0.0000000   0.0000000   0.0000000   0.0000000   0.0000000   0.0000000   0.0000000
 AtZNuc=   0.0000000   0.0000000   0.0000000   0.0000000   0.0000000   0.0000000   0.0000000   0.0000000   0.0000000   0.0000000

  Atom       171         172         173         174         175         176         177         178         179         180
 IAtWgt=           0           0           0           0           0           0           0           0           0           0
 AtmWgt=   0.0000000   0.0000000   0.0000000   0.0000000   0.0000000   0.0000000   0.0000000   0.0000000   0.0000000   0.0000000
 NucSpn=           0           0           0           0           0           0           0           0           0           0
 AtZEff=  -0.0000000  -0.0000000  -0.0000000  -0.0000000  -0.0000000  -0.0000000  -0.0000000  -0.0000000  -0.0000000  -0.0000000
 NQMom=    0.0000000   0.0000000   0.0000000   0.0000000   0.0000000   0.0000000   0.0000000   0.0000000   0.0000000   0.0000000
 NMagM=    0.0000000   0.0000000   0.0000000   0.0000000   0.0000000   0.0000000   0.0000000   0.0000000   0.0000000   0.0000000
 AtZNuc=   0.0000000   0.0000000   0.0000000   0.0000000   0.0000000   0.0000000   0.0000000   0.0000000   0.0000000   0.0000000

  Atom       181         182         183         184         185         186         187         188         189         190
 IAtWgt=           0           0           0           0           0           0           0           0           0           0
 AtmWgt=   0.0000000   0.0000000   0.0000000   0.0000000   0.0000000   0.0000000   0.0000000   0.0000000   0.0000000   0.0000000
 NucSpn=           0           0           0           0           0           0           0           0           0           0
 AtZEff=  -0.0000000  -0.0000000  -0.0000000  -0.0000000  -0.0000000  -0.0000000  -0.0000000  -0.0000000  -0.0000000  -0.0000000
 NQMom=    0.0000000   0.0000000   0.0000000   0.0000000   0.0000000   0.0000000   0.0000000   0.0000000   0.0000000   0.0000000
 NMagM=    0.0000000   0.0000000   0.0000000   0.0000000   0.0000000   0.0000000   0.0000000   0.0000000   0.0000000   0.0000000
 AtZNuc=   0.0000000   0.0000000   0.0000000   0.0000000   0.0000000   0.0000000   0.0000000   0.0000000   0.0000000   0.0000000

  Atom       191         192         193         194         195         196         197         198         199         200
 IAtWgt=           0           0           0           0           0           0           0           0           0           0
 AtmWgt=   0.0000000   0.0000000   0.0000000   0.0000000   0.0000000   0.0000000   0.0000000   0.0000000   0.0000000   0.0000000
 NucSpn=           0           0           0           0           0           0           0           0           0           0
 AtZEff=  -0.0000000  -0.0000000  -0.0000000  -0.0000000  -0.0000000  -0.0000000  -0.0000000  -0.0000000  -0.0000000  -0.0000000
 NQMom=    0.0000000   0.0000000   0.0000000   0.0000000   0.0000000   0.0000000   0.0000000   0.0000000   0.0000000   0.0000000
 NMagM=    0.0000000   0.0000000   0.0000000   0.0000000   0.0000000   0.0000000   0.0000000   0.0000000   0.0000000   0.0000000
 AtZNuc=   0.0000000   0.0000000   0.0000000   0.0000000   0.0000000   0.0000000   0.0000000   0.0000000   0.0000000   0.0000000

  Atom       201         202         203         204         205         206         207         208         209         210
 IAtWgt=           0           0           0           0           0           0           0           0           0           0
 AtmWgt=   0.0000000   0.0000000   0.0000000   0.0000000   0.0000000   0.0000000   0.0000000   0.0000000   0.0000000   0.0000000
 NucSpn=           0           0           0           0           0           0           0           0           0           0
 AtZEff=  -0.0000000  -0.0000000  -0.0000000  -0.0000000  -0.0000000  -0.0000000  -0.0000000  -0.0000000  -0.0000000  -0.0000000
 NQMom=    0.0000000   0.0000000   0.0000000   0.0000000   0.0000000   0.0000000   0.0000000   0.0000000   0.0000000   0.0000000
 NMagM=    0.0000000   0.0000000   0.0000000   0.0000000   0.0000000   0.0000000   0.0000000   0.0000000   0.0000000   0.0000000
 AtZNuc=   0.0000000   0.0000000   0.0000000   0.0000000   0.0000000   0.0000000   0.0000000   0.0000000   0.0000000   0.0000000

  Atom       211         212         213         214         215         216         217         218         219         220
 IAtWgt=           0           0           0           0           0           0           0           0           0           0
 AtmWgt=   0.0000000   0.0000000   0.0000000   0.0000000   0.0000000   0.0000000   0.0000000   0.0000000   0.0000000   0.0000000
 NucSpn=           0           0           0           0           0           0           0           0           0           0
 AtZEff=  -0.0000000  -0.0000000  -0.0000000  -0.0000000  -0.0000000  -0.0000000  -0.0000000  -0.0000000  -0.0000000  -0.0000000
 NQMom=    0.0000000   0.0000000   0.0000000   0.0000000   0.0000000   0.0000000   0.0000000   0.0000000   0.0000000   0.0000000
 NMagM=    0.0000000   0.0000000   0.0000000   0.0000000   0.0000000   0.0000000   0.0000000   0.0000000   0.0000000   0.0000000
 AtZNuc=   0.0000000   0.0000000   0.0000000   0.0000000   0.0000000   0.0000000   0.0000000   0.0000000   0.0000000   0.0000000

[...]
   940  Bq   0.000000
   941  Bq   0.000000
   942  Bq   0.000000
   943  Bq   0.000000
   944  Bq   0.000000
   945  Bq   0.000000
   946  Bq   0.000000
   947  Bq   0.000000
   948  Bq   0.000000
   949  Bq   0.000000
   950  Bq   0.000000
   951  Bq   0.000000
   952  Bq   0.000000
   953  Bq   0.000000
   954  Bq   0.000000
   955  Bq   0.000000
   956  Bq   0.000000
   957  Bq   0.000000
   958  Bq   0.000000
   959  Bq   0.000000
   960  Bq   0.000000
   961  Bq   0.000000
   962  Bq   0.000000
   963  Bq   0.000000
   964  Bq   0.000000
   965  Bq   0.000000
   966  Bq   0.000000
   967  Bq   0.000000
   968  Bq   0.000000
   969  Bq   0.000000
   970  Bq   0.000000
   971  Bq   0.000000
   972  Bq   0.000000
   973  Bq   0.000000
 Electronic spatial extent (au):  <R**2>=            458.2256
 Charge=             -0.0000 electrons
 Dipole moment (field-independent basis, Debye):
    X=              0.0000    Y=             -0.0000    Z=             -0.0001  Tot=              0.0001
 Quadrupole moment (field-independent basis, Debye-Ang):
   XX=            -31.4017   YY=            -31.4026   ZZ=            -38.5973
   XY=             -0.0001   XZ=             -0.0000   YZ=              0.0001
 Traceless Quadrupole moment (field-independent basis, Debye-Ang):
   XX=              2.3988   YY=              2.3979   ZZ=             -4.7968
   XY=             -0.0001   XZ=             -0.0000   YZ=              0.0001
 Octapole moment (field-independent basis, Debye-Ang**2):
  XXX=              0.0023  YYY=              0.0018  ZZZ=             -0.0002  XYY=             -0.0021
  XXY=             -0.0018  XXZ=             -0.0007  XZZ=              0.0001  YZZ=              0.0000
  YYZ=             -0.0003  XYZ=              0.0004
 Hexadecapole moment (field-independent basis, Debye-Ang**3):
 XXXX=           -270.0962 YYYY=           -270.0974 ZZZZ=            -40.0465 XXXY=             -0.0006
 XXXZ=              0.0003 YYYX=             -0.0005 YYYZ=             -0.0002 ZZZX=             -0.0000
 ZZZY=              0.0001 XXYY=            -90.0326 XXZZ=            -60.3530 YYZZ=            -60.3518
 XXYZ=              0.0007 YYXZ=             -0.0005 ZZXY=              0.0000
 N-N= 2.032101596819D+02 E-N=-9.437614496279D+02  KE= 2.299302331189D+02
 Leave Link  601 at Sat Apr 24 15:17:50 2021, MaxMem=  1342177280 cpu:               0.5 elap:               0.1
 (Enter /Applications/g16/l9999.exe)
 1\1\GINC-MAC-MINI\SP\RB3LYP\6-31G(d)\C6H6\TETSU\24-Apr-2021\0\\#p nmr=
 giao rb3lyp/6-31g(d) geom=connectivity\\/Users/tetsu/Desktop/benzene_I
 CSS_XY_0//Created_by_ICSSgen\\0,1\C,0,-1.339236,-0.395853,0.000005\C,0
 ,-0.326685,-1.35773,0.000069\C,0,1.012421,-0.961878,-0.000055\C,0,1.33
 9202,0.395965,0.000008\C,0,0.326798,1.3577,0.000062\C,0,-1.012501,0.96
 1798,-0.000058\H,0,-2.38133,-0.70401,-0.000066\H,0,-0.581086,-2.414245
 ,0.000079\H,0,1.800375,-1.710234,-0.000154\H,0,2.381367,0.703858,0.000
 007\H,0,0.580952,2.414267,0.000018\H,0,-1.800276,1.710353,-0.000063\Bq
 ,0,-3.,-3.,0.\Bq,0,-3.,-2.8,0.\Bq,0,-3.,-2.6,0.\Bq,0,-3.,-2.4,0.\Bq,0,
 -3.,-2.2,0.\Bq,0,-3.,-2.,0.\Bq,0,-3.,-1.8,0.\Bq,0,-3.,-1.6,0.\Bq,0,-3.
 ,-1.4,0.\Bq,0,-3.,-1.2,0.\Bq,0,-3.,-1.,0.\Bq,0,-3.,-0.8,0.\Bq,0,-3.,-0
 .6,0.\Bq,0,-3.,-0.4,0.\Bq,0,-3.,-0.2,0.\Bq,0,-3.,0.,0.\Bq,0,-3.,0.2,0.
 \Bq,0,-3.,0.4,0.\Bq,0,-3.,0.6,0.\Bq,0,-3.,0.8,0.\Bq,0,-3.,1.,0.\Bq,0,-
 3.,1.2,0.\Bq,0,-3.,1.4,0.\Bq,0,-3.,1.6,0.\Bq,0,-3.,1.8,0.\Bq,0,-3.,2.,
 0.\Bq,0,-3.,2.2,0.\Bq,0,-3.,2.4,0.\Bq,0,-3.,2.6,0.\Bq,0,-3.,2.8,0.\Bq,
 0,-3.,3.,0.\Bq,0,-2.8,-3.,0.\Bq,0,-2.8,-2.8,0.\Bq,0,-2.8,-2.6,0.\Bq,0,
 -2.8,-2.4,0.\Bq,0,-2.8,-2.2,0.\Bq,0,-2.8,-2.,0.\Bq,0,-2.8,-1.8,0.\Bq,0
 ,-2.8,-1.6,0.\Bq,0,-2.8,-1.4,0.\Bq,0,-2.8,-1.2,0.\Bq,0,-2.8,-1.,0.\Bq,
 0,-2.8,-0.8,0.\Bq,0,-2.8,-0.6,0.\Bq,0,-2.8,-0.4,0.\Bq,0,-2.8,-0.2,0.\B
 q,0,-2.8,0.,0.\Bq,0,-2.8,0.2,0.\Bq,0,-2.8,0.4,0.\Bq,0,-2.8,0.6,0.\Bq,0
 ,-2.8,0.8,0.\Bq,0,-2.8,1.,0.\Bq,0,-2.8,1.2,0.\Bq,0,-2.8,1.4,0.\Bq,0,-2
 .8,1.6,0.\Bq,0,-2.8,1.8,0.\Bq,0,-2.8,2.,0.\Bq,0,-2.8,2.2,0.\Bq,0,-2.8,
 2.4,0.\Bq,0,-2.8,2.6,0.\Bq,0,-2.8,2.8,0.\Bq,0,-2.8,3.,0.\Bq,0,-2.6,-3.
 ,0.\Bq,0,-2.6,-2.8,0.\Bq,0,-2.6,-2.6,0.\Bq,0,-2.6,-2.4,0.\Bq,0,-2.6,-2
 .2,0.\Bq,0,-2.6,-2.,0.\Bq,0,-2.6,-1.8,0.\Bq,0,-2.6,-1.6,0.\Bq,0,-2.6,-
 1.4,0.\Bq,0,-2.6,-1.2,0.\Bq,0,-2.6,-1.,0.\Bq,0,-2.6,-0.8,0.\Bq,0,-2.6,
 -0.6,0.\Bq,0,-2.6,-0.4,0.\Bq,0,-2.6,-0.2,0.\Bq,0,-2.6,0.,0.\Bq,0,-2.6,
 0.2,0.\Bq,0,-2.6,0.4,0.\Bq,0,-2.6,0.6,0.\Bq,0,-2.6,0.8,0.\Bq,0,-2.6,1.
 ,0.\Bq,0,-2.6,1.2,0.\Bq,0,-2.6,1.4,0.\Bq,0,-2.6,1.6,0.\Bq,0,-2.6,1.8,0
 .\Bq,0,-2.6,2.,0.\Bq,0,-2.6,2.2,0.\Bq,0,-2.6,2.4,0.\Bq,0,-2.6,2.6,0.\B
 q,0,-2.6,2.8,0.\Bq,0,-2.6,3.,0.\Bq,0,-2.4,-3.,0.\Bq,0,-2.4,-2.8,0.\Bq,
 0,-2.4,-2.6,0.\Bq,0,-2.4,-2.4,0.\Bq,0,-2.4,-2.2,0.\Bq,0,-2.4,-2.,0.\Bq
 ,0,-2.4,-1.8,0.\Bq,0,-2.4,-1.6,0.\Bq,0,-2.4,-1.4,0.\Bq,0,-2.4,-1.2,0.\
 Bq,0,-2.4,-1.,0.\Bq,0,-2.4,-0.8,0.\Bq,0,-2.4,-0.6,0.\Bq,0,-2.4,-0.4,0.
 \Bq,0,-2.4,-0.2,0.\Bq,0,-2.4,0.,0.\Bq,0,-2.4,0.2,0.\Bq,0,-2.4,0.4,0.\B
 q,0,-2.4,0.6,0.\Bq,0,-2.4,0.8,0.\Bq,0,-2.4,1.,0.\Bq,0,-2.4,1.2,0.\Bq,0
 ,-2.4,1.4,0.\Bq,0,-2.4,1.6,0.\Bq,0,-2.4,1.8,0.\Bq,0,-2.4,2.,0.\Bq,0,-2
 .4,2.2,0.\Bq,0,-2.4,2.4,0.\Bq,0,-2.4,2.6,0.\Bq,0,-2.4,2.8,0.\Bq,0,-2.4
 ,3.,0.\Bq,0,-2.2,-3.,0.\Bq,0,-2.2,-2.8,0.\Bq,0,-2.2,-2.6,0.\Bq,0,-2.2,
 -2.4,0.\Bq,0,-2.2,-2.2,0.\Bq,0,-2.2,-2.,0.\Bq,0,-2.2,-1.8,0.\Bq,0,-2.2
 ,-1.6,0.\Bq,0,-2.2,-1.4,0.\Bq,0,-2.2,-1.2,0.\Bq,0,-2.2,-1.,0.\Bq,0,-2.
 2,-0.8,0.\Bq,0,-2.2,-0.6,0.\Bq,0,-2.2,-0.4,0.\Bq,0,-2.2,-0.2,0.\Bq,0,-
 2.2,0.,0.\Bq,0,-2.2,0.2,0.\Bq,0,-2.2,0.4,0.\Bq,0,-2.2,0.6,0.\Bq,0,-2.2
 ,0.8,0.\Bq,0,-2.2,1.,0.\Bq,0,-2.2,1.2,0.\Bq,0,-2.2,1.4,0.\Bq,0,-2.2,1.
 6,0.\Bq,0,-2.2,1.8,0.\Bq,0,-2.2,2.,0.\Bq,0,-2.2,2.2,0.\Bq,0,-2.2,2.4,0
 .\Bq,0,-2.2,2.6,0.\Bq,0,-2.2,2.8,0.\Bq,0,-2.2,3.,0.\Bq,0,-2.,-3.,0.\Bq
 ,0,-2.,-2.8,0.\Bq,0,-2.,-2.6,0.\Bq,0,-2.,-2.4,0.\Bq,0,-2.,-2.2,0.\Bq,0
 ,-2.,-2.,0.\Bq,0,-2.,-1.8,0.\Bq,0,-2.,-1.6,0.\Bq,0,-2.,-1.4,0.\Bq,0,-2
 .,-1.2,0.\Bq,0,-2.,-1.,0.\Bq,0,-2.,-0.8,0.\Bq,0,-2.,-0.6,0.\Bq,0,-2.,-
 0.4,0.\Bq,0,-2.,-0.2,0.\Bq,0,-2.,0.,0.\Bq,0,-2.,0.2,0.\Bq,0,-2.,0.4,0.
 \Bq,0,-2.,0.6,0.\Bq,0,-2.,0.8,0.\Bq,0,-2.,1.,0.\Bq,0,-2.,1.2,0.\Bq,0,-
 2.,1.4,0.\Bq,0,-2.,1.6,0.\Bq,0,-2.,1.8,0.\Bq,0,-2.,2.,0.\Bq,0,-2.,2.2,
 0.\Bq,0,-2.,2.4,0.\Bq,0,-2.,2.6,0.\Bq,0,-2.,2.8,0.\Bq,0,-2.,3.,0.\Bq,0
 ,-1.8,-3.,0.\Bq,0,-1.8,-2.8,0.\Bq,0,-1.8,-2.6,0.\Bq,0,-1.8,-2.4,0.\Bq,
 0,-1.8,-2.2,0.\Bq,0,-1.8,-2.,0.\Bq,0,-1.8,-1.8,0.\Bq,0,-1.8,-1.6,0.\Bq
 ,0,-1.8,-1.4,0.\Bq,0,-1.8,-1.2,0.\Bq,0,-1.8,-1.,0.\Bq,0,-1.8,-0.8,0.\B
 q,0,-1.8,-0.6,0.\Bq,0,-1.8,-0.4,0.\Bq,0,-1.8,-0.2,0.\Bq,0,-1.8,0.,0.\B
 q,0,-1.8,0.2,0.\Bq,0,-1.8,0.4,0.\Bq,0,-1.8,0.6,0.\Bq,0,-1.8,0.8,0.\Bq,
 0,-1.8,1.,0.\Bq,0,-1.8,1.2,0.\Bq,0,-1.8,1.4,0.\Bq,0,-1.8,1.6,0.\Bq,0,-
 1.8,1.8,0.\Bq,0,-1.8,2.,0.\Bq,0,-1.8,2.2,0.\Bq,0,-1.8,2.4,0.\Bq,0,-1.8
 ,2.6,0.\Bq,0,-1.8,2.8,0.\Bq,0,-1.8,3.,0.\Bq,0,-1.6,-3.,0.\Bq,0,-1.6,-2
 .8,0.\Bq,0,-1.6,-2.6,0.\Bq,0,-1.6,-2.4,0.\Bq,0,-1.6,-2.2,0.\Bq,0,-1.6,
 -2.,0.\Bq,0,-1.6,-1.8,0.\Bq,0,-1.6,-1.6,0.\Bq,0,-1.6,-1.4,0.\Bq,0,-1.6
 ,-1.2,0.\Bq,0,-1.6,-1.,0.\Bq,0,-1.6,-0.8,0.\Bq,0,-1.6,-0.6,0.\Bq,0,-1.
 6,-0.4,0.\Bq,0,-1.6,-0.2,0.\Bq,0,-1.6,0.,0.\Bq,0,-1.6,0.2,0.\Bq,0,-1.6
 ,0.4,0.\Bq,0,-1.6,0.6,0.\Bq,0,-1.6,0.8,0.\Bq,0,-1.6,1.,0.\Bq,0,-1.6,1.
 2,0.\Bq,0,-1.6,1.4,0.\Bq,0,-1.6,1.6,0.\Bq,0,-1.6,1.8,0.\Bq,0,-1.6,2.,0
 .\Bq,0,-1.6,2.2,0.\Bq,0,-1.6,2.4,0.\Bq,0,-1.6,2.6,0.\Bq,0,-1.6,2.8,0.\
 Bq,0,-1.6,3.,0.\Bq,0,-1.4,-3.,0.\Bq,0,-1.4,-2.8,0.\Bq,0,-1.4,-2.6,0.\B
 q,0,-1.4,-2.4,0.\Bq,0,-1.4,-2.2,0.\Bq,0,-1.4,-2.,0.\Bq,0,-1.4,-1.8,0.\
 Bq,0,-1.4,-1.6,0.\Bq,0,-1.4,-1.4,0.\Bq,0,-1.4,-1.2,0.\Bq,0,-1.4,-1.,0.
 \Bq,0,-1.4,-0.8,0.\Bq,0,-1.4,-0.6,0.\Bq,0,-1.4,-0.4,0.\Bq,0,-1.4,-0.2,
 0.\Bq,0,-1.4,0.,0.\Bq,0,-1.4,0.2,0.\Bq,0,-1.4,0.4,0.\Bq,0,-1.4,0.6,0.\
 Bq,0,-1.4,0.8,0.\Bq,0,-1.4,1.,0.\Bq,0,-1.4,1.2,0.\Bq,0,-1.4,1.4,0.\Bq,
 0,-1.4,1.6,0.\Bq,0,-1.4,1.8,0.\Bq,0,-1.4,2.,0.\Bq,0,-1.4,2.2,0.\Bq,0,-
 1.4,2.4,0.\Bq,0,-1.4,2.6,0.\Bq,0,-1.4,2.8,0.\Bq,0,-1.4,3.,0.\Bq,0,-1.2
 ,-3.,0.\Bq,0,-1.2,-2.8,0.\Bq,0,-1.2,-2.6,0.\Bq,0,-1.2,-2.4,0.\Bq,0,-1.
 2,-2.2,0.\Bq,0,-1.2,-2.,0.\Bq,0,-1.2,-1.8,0.\Bq,0,-1.2,-1.6,0.\Bq,0,-1
 .2,-1.4,0.\Bq,0,-1.2,-1.2,0.\Bq,0,-1.2,-1.,0.\Bq,0,-1.2,-0.8,0.\Bq,0,-
 1.2,-0.6,0.\Bq,0,-1.2,-0.4,0.\Bq,0,-1.2,-0.2,0.\Bq,0,-1.2,0.,0.\Bq,0,-
 1.2,0.2,0.\Bq,0,-1.2,0.4,0.\Bq,0,-1.2,0.6,0.\Bq,0,-1.2,0.8,0.\Bq,0,-1.
 2,1.,0.\Bq,0,-1.2,1.2,0.\Bq,0,-1.2,1.4,0.\Bq,0,-1.2,1.6,0.\Bq,0,-1.2,1
 .8,0.\Bq,0,-1.2,2.,0.\Bq,0,-1.2,2.2,0.\Bq,0,-1.2,2.4,0.\Bq,0,-1.2,2.6,
 0.\Bq,0,-1.2,2.8,0.\Bq,0,-1.2,3.,0.\Bq,0,-1.,-3.,0.\Bq,0,-1.,-2.8,0.\B
 q,0,-1.,-2.6,0.\Bq,0,-1.,-2.4,0.\Bq,0,-1.,-2.2,0.\Bq,0,-1.,-2.,0.\Bq,0
 ,-1.,-1.8,0.\Bq,0,-1.,-1.6,0.\Bq,0,-1.,-1.4,0.\Bq,0,-1.,-1.2,0.\Bq,0,-
 1.,-1.,0.\Bq,0,-1.,-0.8,0.\Bq,0,-1.,-0.6,0.\Bq,0,-1.,-0.4,0.\Bq,0,-1.,
 -0.2,0.\Bq,0,-1.,0.,0.\Bq,0,-1.,0.2,0.\Bq,0,-1.,0.4,0.\Bq,0,-1.,0.6,0.
 \Bq,0,-1.,0.8,0.\Bq,0,-1.,1.,0.\Bq,0,-1.,1.2,0.\Bq,0,-1.,1.4,0.\Bq,0,-
 1.,1.6,0.\Bq,0,-1.,1.8,0.\Bq,0,-1.,2.,0.\Bq,0,-1.,2.2,0.\Bq,0,-1.,2.4,
 0.\Bq,0,-1.,2.6,0.\Bq,0,-1.,2.8,0.\Bq,0,-1.,3.,0.\Bq,0,-0.8,-3.,0.\Bq,
 0,-0.8,-2.8,0.\Bq,0,-0.8,-2.6,0.\Bq,0,-0.8,-2.4,0.\Bq,0,-0.8,-2.2,0.\B
 q,0,-0.8,-2.,0.\Bq,0,-0.8,-1.8,0.\Bq,0,-0.8,-1.6,0.\Bq,0,-0.8,-1.4,0.\
 Bq,0,-0.8,-1.2,0.\Bq,0,-0.8,-1.,0.\Bq,0,-0.8,-0.8,0.\Bq,0,-0.8,-0.6,0.
 \Bq,0,-0.8,-0.4,0.\Bq,0,-0.8,-0.2,0.\Bq,0,-0.8,0.,0.\Bq,0,-0.8,0.2,0.\
 Bq,0,-0.8,0.4,0.\Bq,0,-0.8,0.6,0.\Bq,0,-0.8,0.8,0.\Bq,0,-0.8,1.,0.\Bq,
 0,-0.8,1.2,0.\Bq,0,-0.8,1.4,0.\Bq,0,-0.8,1.6,0.\Bq,0,-0.8,1.8,0.\Bq,0,
 -0.8,2.,0.\Bq,0,-0.8,2.2,0.\Bq,0,-0.8,2.4,0.\Bq,0,-0.8,2.6,0.\Bq,0,-0.
 8,2.8,0.\Bq,0,-0.8,3.,0.\Bq,0,-0.6,-3.,0.\Bq,0,-0.6,-2.8,0.\Bq,0,-0.6,
 -2.6,0.\Bq,0,-0.6,-2.4,0.\Bq,0,-0.6,-2.2,0.\Bq,0,-0.6,-2.,0.\Bq,0,-0.6
 ,-1.8,0.\Bq,0,-0.6,-1.6,0.\Bq,0,-0.6,-1.4,0.\Bq,0,-0.6,-1.2,0.\Bq,0,-0
 .6,-1.,0.\Bq,0,-0.6,-0.8,0.\Bq,0,-0.6,-0.6,0.\Bq,0,-0.6,-0.4,0.\Bq,0,-
 0.6,-0.2,0.\Bq,0,-0.6,0.,0.\Bq,0,-0.6,0.2,0.\Bq,0,-0.6,0.4,0.\Bq,0,-0.
 6,0.6,0.\Bq,0,-0.6,0.8,0.\Bq,0,-0.6,1.,0.\Bq,0,-0.6,1.2,0.\Bq,0,-0.6,1
 .4,0.\Bq,0,-0.6,1.6,0.\Bq,0,-0.6,1.8,0.\Bq,0,-0.6,2.,0.\Bq,0,-0.6,2.2,
 0.\Bq,0,-0.6,2.4,0.\Bq,0,-0.6,2.6,0.\Bq,0,-0.6,2.8,0.\Bq,0,-0.6,3.,0.\
 Bq,0,-0.4,-3.,0.\Bq,0,-0.4,-2.8,0.\Bq,0,-0.4,-2.6,0.\Bq,0,-0.4,-2.4,0.
 \Bq,0,-0.4,-2.2,0.\Bq,0,-0.4,-2.,0.\Bq,0,-0.4,-1.8,0.\Bq,0,-0.4,-1.6,0
 .\Bq,0,-0.4,-1.4,0.\Bq,0,-0.4,-1.2,0.\Bq,0,-0.4,-1.,0.\Bq,0,-0.4,-0.8,
 0.\Bq,0,-0.4,-0.6,0.\Bq,0,-0.4,-0.4,0.\Bq,0,-0.4,-0.2,0.\Bq,0,-0.4,0.,
 0.\Bq,0,-0.4,0.2,0.\Bq,0,-0.4,0.4,0.\Bq,0,-0.4,0.6,0.\Bq,0,-0.4,0.8,0.
 \Bq,0,-0.4,1.,0.\Bq,0,-0.4,1.2,0.\Bq,0,-0.4,1.4,0.\Bq,0,-0.4,1.6,0.\Bq
 ,0,-0.4,1.8,0.\Bq,0,-0.4,2.,0.\Bq,0,-0.4,2.2,0.\Bq,0,-0.4,2.4,0.\Bq,0,
 -0.4,2.6,0.\Bq,0,-0.4,2.8,0.\Bq,0,-0.4,3.,0.\Bq,0,-0.2,-3.,0.\Bq,0,-0.
 2,-2.8,0.\Bq,0,-0.2,-2.6,0.\Bq,0,-0.2,-2.4,0.\Bq,0,-0.2,-2.2,0.\Bq,0,-
 0.2,-2.,0.\Bq,0,-0.2,-1.8,0.\Bq,0,-0.2,-1.6,0.\Bq,0,-0.2,-1.4,0.\Bq,0,
 -0.2,-1.2,0.\Bq,0,-0.2,-1.,0.\Bq,0,-0.2,-0.8,0.\Bq,0,-0.2,-0.6,0.\Bq,0
 ,-0.2,-0.4,0.\Bq,0,-0.2,-0.2,0.\Bq,0,-0.2,0.,0.\Bq,0,-0.2,0.2,0.\Bq,0,
 -0.2,0.4,0.\Bq,0,-0.2,0.6,0.\Bq,0,-0.2,0.8,0.\Bq,0,-0.2,1.,0.\Bq,0,-0.
 2,1.2,0.\Bq,0,-0.2,1.4,0.\Bq,0,-0.2,1.6,0.\Bq,0,-0.2,1.8,0.\Bq,0,-0.2,
 2.,0.\Bq,0,-0.2,2.2,0.\Bq,0,-0.2,2.4,0.\Bq,0,-0.2,2.6,0.\Bq,0,-0.2,2.8
 ,0.\Bq,0,-0.2,3.,0.\Bq,0,0.,-3.,0.\Bq,0,0.,-2.8,0.\Bq,0,0.,-2.6,0.\Bq,
 0,0.,-2.4,0.\Bq,0,0.,-2.2,0.\Bq,0,0.,-2.,0.\Bq,0,0.,-1.8,0.\Bq,0,0.,-1
 .6,0.\Bq,0,0.,-1.4,0.\Bq,0,0.,-1.2,0.\Bq,0,0.,-1.,0.\Bq,0,0.,-0.8,0.\B
 q,0,0.,-0.6,0.\Bq,0,0.,-0.4,0.\Bq,0,0.,-0.2,0.\Bq,0,0.,0.,0.\Bq,0,0.,0
 .2,0.\Bq,0,0.,0.4,0.\Bq,0,0.,0.6,0.\Bq,0,0.,0.8,0.\Bq,0,0.,1.,0.\Bq,0,
 0.,1.2,0.\Bq,0,0.,1.4,0.\Bq,0,0.,1.6,0.\Bq,0,0.,1.8,0.\Bq,0,0.,2.,0.\B
 q,0,0.,2.2,0.\Bq,0,0.,2.4,0.\Bq,0,0.,2.6,0.\Bq,0,0.,2.8,0.\Bq,0,0.,3.,
 0.\Bq,0,0.2,-3.,0.\Bq,0,0.2,-2.8,0.\Bq,0,0.2,-2.6,0.\Bq,0,0.2,-2.4,0.\
 Bq,0,0.2,-2.2,0.\Bq,0,0.2,-2.,0.\Bq,0,0.2,-1.8,0.\Bq,0,0.2,-1.6,0.\Bq,
 0,0.2,-1.4,0.\Bq,0,0.2,-1.2,0.\Bq,0,0.2,-1.,0.\Bq,0,0.2,-0.8,0.\Bq,0,0
 .2,-0.6,0.\Bq,0,0.2,-0.4,0.\Bq,0,0.2,-0.2,0.\Bq,0,0.2,0.,0.\Bq,0,0.2,0
 .2,0.\Bq,0,0.2,0.4,0.\Bq,0,0.2,0.6,0.\Bq,0,0.2,0.8,0.\Bq,0,0.2,1.,0.\B
 q,0,0.2,1.2,0.\Bq,0,0.2,1.4,0.\Bq,0,0.2,1.6,0.\Bq,0,0.2,1.8,0.\Bq,0,0.
 2,2.,0.\Bq,0,0.2,2.2,0.\Bq,0,0.2,2.4,0.\Bq,0,0.2,2.6,0.\Bq,0,0.2,2.8,0
 .\Bq,0,0.2,3.,0.\Bq,0,0.4,-3.,0.\Bq,0,0.4,-2.8,0.\Bq,0,0.4,-2.6,0.\Bq,
 0,0.4,-2.4,0.\Bq,0,0.4,-2.2,0.\Bq,0,0.4,-2.,0.\Bq,0,0.4,-1.8,0.\Bq,0,0
 .4,-1.6,0.\Bq,0,0.4,-1.4,0.\Bq,0,0.4,-1.2,0.\Bq,0,0.4,-1.,0.\Bq,0,0.4,
 -0.8,0.\Bq,0,0.4,-0.6,0.\Bq,0,0.4,-0.4,0.\Bq,0,0.4,-0.2,0.\Bq,0,0.4,0.
 ,0.\Bq,0,0.4,0.2,0.\Bq,0,0.4,0.4,0.\Bq,0,0.4,0.6,0.\Bq,0,0.4,0.8,0.\Bq
 ,0,0.4,1.,0.\Bq,0,0.4,1.2,0.\Bq,0,0.4,1.4,0.\Bq,0,0.4,1.6,0.\Bq,0,0.4,
 1.8,0.\Bq,0,0.4,2.,0.\Bq,0,0.4,2.2,0.\Bq,0,0.4,2.4,0.\Bq,0,0.4,2.6,0.\
 Bq,0,0.4,2.8,0.\Bq,0,0.4,3.,0.\Bq,0,0.6,-3.,0.\Bq,0,0.6,-2.8,0.\Bq,0,0
 .6,-2.6,0.\Bq,0,0.6,-2.4,0.\Bq,0,0.6,-2.2,0.\Bq,0,0.6,-2.,0.\Bq,0,0.6,
 -1.8,0.\Bq,0,0.6,-1.6,0.\Bq,0,0.6,-1.4,0.\Bq,0,0.6,-1.2,0.\Bq,0,0.6,-1
 .,0.\Bq,0,0.6,-0.8,0.\Bq,0,0.6,-0.6,0.\Bq,0,0.6,-0.4,0.\Bq,0,0.6,-0.2,
 0.\Bq,0,0.6,0.,0.\Bq,0,0.6,0.2,0.\Bq,0,0.6,0.4,0.\Bq,0,0.6,0.6,0.\Bq,0
 ,0.6,0.8,0.\Bq,0,0.6,1.,0.\Bq,0,0.6,1.2,0.\Bq,0,0.6,1.4,0.\Bq,0,0.6,1.
 6,0.\Bq,0,0.6,1.8,0.\Bq,0,0.6,2.,0.\Bq,0,0.6,2.2,0.\Bq,0,0.6,2.4,0.\Bq
 ,0,0.6,2.6,0.\Bq,0,0.6,2.8,0.\Bq,0,0.6,3.,0.\Bq,0,0.8,-3.,0.\Bq,0,0.8,
 -2.8,0.\Bq,0,0.8,-2.6,0.\Bq,0,0.8,-2.4,0.\Bq,0,0.8,-2.2,0.\Bq,0,0.8,-2
 .,0.\Bq,0,0.8,-1.8,0.\Bq,0,0.8,-1.6,0.\Bq,0,0.8,-1.4,0.\Bq,0,0.8,-1.2,
 0.\Bq,0,0.8,-1.,0.\Bq,0,0.8,-0.8,0.\Bq,0,0.8,-0.6,0.\Bq,0,0.8,-0.4,0.\
 Bq,0,0.8,-0.2,0.\Bq,0,0.8,0.,0.\Bq,0,0.8,0.2,0.\Bq,0,0.8,0.4,0.\Bq,0,0
 .8,0.6,0.\Bq,0,0.8,0.8,0.\Bq,0,0.8,1.,0.\Bq,0,0.8,1.2,0.\Bq,0,0.8,1.4,
 0.\Bq,0,0.8,1.6,0.\Bq,0,0.8,1.8,0.\Bq,0,0.8,2.,0.\Bq,0,0.8,2.2,0.\Bq,0
 ,0.8,2.4,0.\Bq,0,0.8,2.6,0.\Bq,0,0.8,2.8,0.\Bq,0,0.8,3.,0.\Bq,0,1.,-3.
 ,0.\Bq,0,1.,-2.8,0.\Bq,0,1.,-2.6,0.\Bq,0,1.,-2.4,0.\Bq,0,1.,-2.2,0.\Bq
 ,0,1.,-2.,0.\Bq,0,1.,-1.8,0.\Bq,0,1.,-1.6,0.\Bq,0,1.,-1.4,0.\Bq,0,1.,-
 1.2,0.\Bq,0,1.,-1.,0.\Bq,0,1.,-0.8,0.\Bq,0,1.,-0.6,0.\Bq,0,1.,-0.4,0.\
 Bq,0,1.,-0.2,0.\Bq,0,1.,0.,0.\Bq,0,1.,0.2,0.\Bq,0,1.,0.4,0.\Bq,0,1.,0.
 6,0.\Bq,0,1.,0.8,0.\Bq,0,1.,1.,0.\Bq,0,1.,1.2,0.\Bq,0,1.,1.4,0.\Bq,0,1
 .,1.6,0.\Bq,0,1.,1.8,0.\Bq,0,1.,2.,0.\Bq,0,1.,2.2,0.\Bq,0,1.,2.4,0.\Bq
 ,0,1.,2.6,0.\Bq,0,1.,2.8,0.\Bq,0,1.,3.,0.\Bq,0,1.2,-3.,0.\Bq,0,1.2,-2.
 8,0.\Bq,0,1.2,-2.6,0.\Bq,0,1.2,-2.4,0.\Bq,0,1.2,-2.2,0.\Bq,0,1.2,-2.,0
 .\Bq,0,1.2,-1.8,0.\Bq,0,1.2,-1.6,0.\Bq,0,1.2,-1.4,0.\Bq,0,1.2,-1.2,0.\
 Bq,0,1.2,-1.,0.\Bq,0,1.2,-0.8,0.\Bq,0,1.2,-0.6,0.\Bq,0,1.2,-0.4,0.\Bq,
 0,1.2,-0.2,0.\Bq,0,1.2,0.,0.\Bq,0,1.2,0.2,0.\Bq,0,1.2,0.4,0.\Bq,0,1.2,
 0.6,0.\Bq,0,1.2,0.8,0.\Bq,0,1.2,1.,0.\Bq,0,1.2,1.2,0.\Bq,0,1.2,1.4,0.\
 Bq,0,1.2,1.6,0.\Bq,0,1.2,1.8,0.\Bq,0,1.2,2.,0.\Bq,0,1.2,2.2,0.\Bq,0,1.
 2,2.4,0.\Bq,0,1.2,2.6,0.\Bq,0,1.2,2.8,0.\Bq,0,1.2,3.,0.\Bq,0,1.4,-3.,0
 .\Bq,0,1.4,-2.8,0.\Bq,0,1.4,-2.6,0.\Bq,0,1.4,-2.4,0.\Bq,0,1.4,-2.2,0.\
 Bq,0,1.4,-2.,0.\Bq,0,1.4,-1.8,0.\Bq,0,1.4,-1.6,0.\Bq,0,1.4,-1.4,0.\Bq,
 0,1.4,-1.2,0.\Bq,0,1.4,-1.,0.\Bq,0,1.4,-0.8,0.\Bq,0,1.4,-0.6,0.\Bq,0,1
 .4,-0.4,0.\Bq,0,1.4,-0.2,0.\Bq,0,1.4,0.,0.\Bq,0,1.4,0.2,0.\Bq,0,1.4,0.
 4,0.\Bq,0,1.4,0.6,0.\Bq,0,1.4,0.8,0.\Bq,0,1.4,1.,0.\Bq,0,1.4,1.2,0.\Bq
 ,0,1.4,1.4,0.\Bq,0,1.4,1.6,0.\Bq,0,1.4,1.8,0.\Bq,0,1.4,2.,0.\Bq,0,1.4,
 2.2,0.\Bq,0,1.4,2.4,0.\Bq,0,1.4,2.6,0.\Bq,0,1.4,2.8,0.\Bq,0,1.4,3.,0.\
 Bq,0,1.6,-3.,0.\Bq,0,1.6,-2.8,0.\Bq,0,1.6,-2.6,0.\Bq,0,1.6,-2.4,0.\Bq,
 0,1.6,-2.2,0.\Bq,0,1.6,-2.,0.\Bq,0,1.6,-1.8,0.\Bq,0,1.6,-1.6,0.\Bq,0,1
 .6,-1.4,0.\Bq,0,1.6,-1.2,0.\Bq,0,1.6,-1.,0.\Bq,0,1.6,-0.8,0.\Bq,0,1.6,
 -0.6,0.\Bq,0,1.6,-0.4,0.\Bq,0,1.6,-0.2,0.\Bq,0,1.6,0.,0.\Bq,0,1.6,0.2,
 0.\Bq,0,1.6,0.4,0.\Bq,0,1.6,0.6,0.\Bq,0,1.6,0.8,0.\Bq,0,1.6,1.,0.\Bq,0
 ,1.6,1.2,0.\Bq,0,1.6,1.4,0.\Bq,0,1.6,1.6,0.\Bq,0,1.6,1.8,0.\Bq,0,1.6,2
 .,0.\Bq,0,1.6,2.2,0.\Bq,0,1.6,2.4,0.\Bq,0,1.6,2.6,0.\Bq,0,1.6,2.8,0.\B
 q,0,1.6,3.,0.\Bq,0,1.8,-3.,0.\Bq,0,1.8,-2.8,0.\Bq,0,1.8,-2.6,0.\Bq,0,1
 .8,-2.4,0.\Bq,0,1.8,-2.2,0.\Bq,0,1.8,-2.,0.\Bq,0,1.8,-1.8,0.\Bq,0,1.8,
 -1.6,0.\Bq,0,1.8,-1.4,0.\Bq,0,1.8,-1.2,0.\Bq,0,1.8,-1.,0.\Bq,0,1.8,-0.
 8,0.\Bq,0,1.8,-0.6,0.\Bq,0,1.8,-0.4,0.\Bq,0,1.8,-0.2,0.\Bq,0,1.8,0.,0.
 \Bq,0,1.8,0.2,0.\Bq,0,1.8,0.4,0.\Bq,0,1.8,0.6,0.\Bq,0,1.8,0.8,0.\Bq,0,
 1.8,1.,0.\Bq,0,1.8,1.2,0.\Bq,0,1.8,1.4,0.\Bq,0,1.8,1.6,0.\Bq,0,1.8,1.8
 ,0.\Bq,0,1.8,2.,0.\Bq,0,1.8,2.2,0.\Bq,0,1.8,2.4,0.\Bq,0,1.8,2.6,0.\Bq,
 0,1.8,2.8,0.\Bq,0,1.8,3.,0.\Bq,0,2.,-3.,0.\Bq,0,2.,-2.8,0.\Bq,0,2.,-2.
 6,0.\Bq,0,2.,-2.4,0.\Bq,0,2.,-2.2,0.\Bq,0,2.,-2.,0.\Bq,0,2.,-1.8,0.\Bq
 ,0,2.,-1.6,0.\Bq,0,2.,-1.4,0.\Bq,0,2.,-1.2,0.\Bq,0,2.,-1.,0.\Bq,0,2.,-
 0.8,0.\Bq,0,2.,-0.6,0.\Bq,0,2.,-0.4,0.\Bq,0,2.,-0.2,0.\Bq,0,2.,0.,0.\B
 q,0,2.,0.2,0.\Bq,0,2.,0.4,0.\Bq,0,2.,0.6,0.\Bq,0,2.,0.8,0.\Bq,0,2.,1.,
 0.\Bq,0,2.,1.2,0.\Bq,0,2.,1.4,0.\Bq,0,2.,1.6,0.\Bq,0,2.,1.8,0.\Bq,0,2.
 ,2.,0.\Bq,0,2.,2.2,0.\Bq,0,2.,2.4,0.\Bq,0,2.,2.6,0.\Bq,0,2.,2.8,0.\Bq,
 0,2.,3.,0.\Bq,0,2.2,-3.,0.\Bq,0,2.2,-2.8,0.\Bq,0,2.2,-2.6,0.\Bq,0,2.2,
 -2.4,0.\Bq,0,2.2,-2.2,0.\Bq,0,2.2,-2.,0.\Bq,0,2.2,-1.8,0.\Bq,0,2.2,-1.
 6,0.\Bq,0,2.2,-1.4,0.\Bq,0,2.2,-1.2,0.\Bq,0,2.2,-1.,0.\Bq,0,2.2,-0.8,0
 .\Bq,0,2.2,-0.6,0.\Bq,0,2.2,-0.4,0.\Bq,0,2.2,-0.2,0.\Bq,0,2.2,0.,0.\Bq
 ,0,2.2,0.2,0.\Bq,0,2.2,0.4,0.\Bq,0,2.2,0.6,0.\Bq,0,2.2,0.8,0.\Bq,0,2.2
 ,1.,0.\Bq,0,2.2,1.2,0.\Bq,0,2.2,1.4,0.\Bq,0,2.2,1.6,0.\Bq,0,2.2,1.8,0.
 \Bq,0,2.2,2.,0.\Bq,0,2.2,2.2,0.\Bq,0,2.2,2.4,0.\Bq,0,2.2,2.6,0.\Bq,0,2
 .2,2.8,0.\Bq,0,2.2,3.,0.\Bq,0,2.4,-3.,0.\Bq,0,2.4,-2.8,0.\Bq,0,2.4,-2.
 6,0.\Bq,0,2.4,-2.4,0.\Bq,0,2.4,-2.2,0.\Bq,0,2.4,-2.,0.\Bq,0,2.4,-1.8,0
 .\Bq,0,2.4,-1.6,0.\Bq,0,2.4,-1.4,0.\Bq,0,2.4,-1.2,0.\Bq,0,2.4,-1.,0.\B
 q,0,2.4,-0.8,0.\Bq,0,2.4,-0.6,0.\Bq,0,2.4,-0.4,0.\Bq,0,2.4,-0.2,0.\Bq,
 0,2.4,0.,0.\Bq,0,2.4,0.2,0.\Bq,0,2.4,0.4,0.\Bq,0,2.4,0.6,0.\Bq,0,2.4,0
 .8,0.\Bq,0,2.4,1.,0.\Bq,0,2.4,1.2,0.\Bq,0,2.4,1.4,0.\Bq,0,2.4,1.6,0.\B
 q,0,2.4,1.8,0.\Bq,0,2.4,2.,0.\Bq,0,2.4,2.2,0.\Bq,0,2.4,2.4,0.\Bq,0,2.4
 ,2.6,0.\Bq,0,2.4,2.8,0.\Bq,0,2.4,3.,0.\Bq,0,2.6,-3.,0.\Bq,0,2.6,-2.8,0
 .\Bq,0,2.6,-2.6,0.\Bq,0,2.6,-2.4,0.\Bq,0,2.6,-2.2,0.\Bq,0,2.6,-2.,0.\B
 q,0,2.6,-1.8,0.\Bq,0,2.6,-1.6,0.\Bq,0,2.6,-1.4,0.\Bq,0,2.6,-1.2,0.\Bq,
 0,2.6,-1.,0.\Bq,0,2.6,-0.8,0.\Bq,0,2.6,-0.6,0.\Bq,0,2.6,-0.4,0.\Bq,0,2
 .6,-0.2,0.\Bq,0,2.6,0.,0.\Bq,0,2.6,0.2,0.\Bq,0,2.6,0.4,0.\Bq,0,2.6,0.6
 ,0.\Bq,0,2.6,0.8,0.\Bq,0,2.6,1.,0.\Bq,0,2.6,1.2,0.\Bq,0,2.6,1.4,0.\Bq,
 0,2.6,1.6,0.\Bq,0,2.6,1.8,0.\Bq,0,2.6,2.,0.\Bq,0,2.6,2.2,0.\Bq,0,2.6,2
 .4,0.\Bq,0,2.6,2.6,0.\Bq,0,2.6,2.8,0.\Bq,0,2.6,3.,0.\Bq,0,2.8,-3.,0.\B
 q,0,2.8,-2.8,0.\Bq,0,2.8,-2.6,0.\Bq,0,2.8,-2.4,0.\Bq,0,2.8,-2.2,0.\Bq,
 0,2.8,-2.,0.\Bq,0,2.8,-1.8,0.\Bq,0,2.8,-1.6,0.\Bq,0,2.8,-1.4,0.\Bq,0,2
 .8,-1.2,0.\Bq,0,2.8,-1.,0.\Bq,0,2.8,-0.8,0.\Bq,0,2.8,-0.6,0.\Bq,0,2.8,
 -0.4,0.\Bq,0,2.8,-0.2,0.\Bq,0,2.8,0.,0.\Bq,0,2.8,0.2,0.\Bq,0,2.8,0.4,0
 .\Bq,0,2.8,0.6,0.\Bq,0,2.8,0.8,0.\Bq,0,2.8,1.,0.\Bq,0,2.8,1.2,0.\Bq,0,
 2.8,1.4,0.\Bq,0,2.8,1.6,0.\Bq,0,2.8,1.8,0.\Bq,0,2.8,2.,0.\Bq,0,2.8,2.2
 ,0.\Bq,0,2.8,2.4,0.\Bq,0,2.8,2.6,0.\Bq,0,2.8,2.8,0.\Bq,0,2.8,3.,0.\Bq,
 0,3.,-3.,0.\Bq,0,3.,-2.8,0.\Bq,0,3.,-2.6,0.\Bq,0,3.,-2.4,0.\Bq,0,3.,-2
 .2,0.\Bq,0,3.,-2.,0.\Bq,0,3.,-1.8,0.\Bq,0,3.,-1.6,0.\Bq,0,3.,-1.4,0.\B
 q,0,3.,-1.2,0.\Bq,0,3.,-1.,0.\Bq,0,3.,-0.8,0.\Bq,0,3.,-0.6,0.\Bq,0,3.,
 -0.4,0.\Bq,0,3.,-0.2,0.\Bq,0,3.,0.,0.\Bq,0,3.,0.2,0.\Bq,0,3.,0.4,0.\Bq
 ,0,3.,0.6,0.\Bq,0,3.,0.8,0.\Bq,0,3.,1.,0.\Bq,0,3.,1.2,0.\Bq,0,3.,1.4,0
 .\Bq,0,3.,1.6,0.\Bq,0,3.,1.8,0.\Bq,0,3.,2.,0.\Bq,0,3.,2.2,0.\Bq,0,3.,2
 .4,0.\Bq,0,3.,2.6,0.\Bq,0,3.,2.8,0.\Bq,0,3.,3.,0.\\Version=EM64M-G16Re
 vB.01\HF=-232.248651\RMSD=3.249e-09\Dipole=0.0000049,-0.0000001,-0.000
 0441\Quadrupole=1.7834791,1.7827945,-3.5662736,-0.0000799,-0.0000167,0
 .0000391\PG=C01 [X(C6H6)]\\@


 IT IS A QUALITY OF REVOLUTIONS NOT TO GO BY OLD LINES OR OLD LAWS,
 BUT TO BREAK UP BOTH, AND MAKE NEW ONES.
                                              -- A. LINCOLN (1848)
 Job cpu time:       0 days  0 hours  1 minutes 42.9 seconds.
 Elapsed time:       0 days  0 hours  0 minutes 19.1 seconds.
 File lengths (MBytes):  RWF=     14 Int=      0 D2E=      0 Chk=      4 Scr=      1
 Normal termination of Gaussian 16 at Sat Apr 24 15:17:50 2021.
